/*--------------------------------*- C++ -*----------------------------------*\
| =========                 |                                                 |
| \\      /  F ield         | OpenFOAM: The Open Source CFD Toolbox           |
|  \\    /   O peration     | Version:  v1812                                 |
|   \\  /    A nd           | Web:      www.OpenFOAM.com                      |
|    \\/     M anipulation  |                                                 |
\*---------------------------------------------------------------------------*/
FoamFile
{
    version     2.0;
    format      ascii;
    class       volVectorField;
    location    "1";
    object      U;
}
// * * * * * * * * * * * * * * * * * * * * * * * * * * * * * * * * * * * * * //

dimensions      [0 1 -1 0 0 0 0];


internalField   nonuniform List<vector> 
20400
(
(0.000597055 -0.0141085 0)
(0.0164971 -0.0218451 0)
(0.0443903 -0.0240372 0)
(0.0802213 -0.0181619 0)
(0.117276 -0.0101039 0)
(0.151938 -0.00242973 0)
(0.181499 0.000336061 0)
(0.207181 -0.00210742 0)
(0.231013 -0.00565513 0)
(0.253189 -0.00673879 0)
(0.272601 -0.00643855 0)
(0.288325 -0.00582194 0)
(0.301254 -0.00647114 0)
(0.312955 -0.00801881 0)
(0.324806 -0.0105716 0)
(0.338534 -0.014403 0)
(0.356319 -0.0191238 0)
(0.379488 -0.0236819 0)
(0.4085 -0.0276921 0)
(0.44419 -0.0309178 0)
(0.486619 -0.0329544 0)
(0.535913 -0.0351373 0)
(0.594235 -0.0383298 0)
(0.663011 -0.0405295 0)
(0.740573 -0.0415144 0)
(0.826299 -0.0434074 0)
(0.923738 -0.045281 0)
(1.02972 -0.0431723 0)
(1.14411 -0.0410745 0)
(1.26394 -0.0348336 0)
(1.38542 -0.0288585 0)
(1.50997 -0.0228025 0)
(1.63547 -0.0141209 0)
(1.758 -0.00460709 0)
(1.88495 -0.00699692 0)
(2.01501 0.0193912 0)
(2.13756 0.00940983 0)
(2.26037 0.0215603 0)
(2.37906 0.0177153 0)
(2.47264 0.0369644 0)
(2.52643 -0.043596 0)
(2.58283 -0.102904 0)
(2.60479 -0.191873 0)
(2.5949 -0.294393 0)
(2.50639 -0.167063 0)
(2.38878 0.104552 0)
(2.19849 0.138862 0)
(2.02104 0.13339 0)
(1.84305 0.136769 0)
(1.65255 0.161661 0)
(1.42134 0.223518 0)
(1.11013 0.324523 0)
(0.691044 0.440791 0)
(0.1533 0.523615 0)
(-0.439529 0.353878 0)
(-1.06156 0.190627 0)
(-1.69647 0.132267 0)
(-2.34019 0.184812 0)
(-3.00852 0.271713 0)
(-3.70207 0.323085 0)
(-4.40777 0.311447 0)
(-5.11133 0.242339 0)
(-5.789 0.157176 0)
(-6.42907 0.0935422 0)
(-7.03517 0.0655982 0)
(-7.6065 0.0861942 0)
(-8.10211 0.15536 0)
(-8.51755 0.201607 0)
(-8.81617 0.158378 0)
(-9.0159 0.0992236 0)
(-9.14139 0.0474031 0)
(-9.1896 0.0174549 0)
(-9.17618 -0.0352566 0)
(-9.06764 -0.0978481 0)
(-8.85156 -0.120907 0)
(-8.54981 -0.117387 0)
(-8.17865 -0.111022 0)
(-7.75477 -0.11842 0)
(-7.29344 -0.143052 0)
(-6.80783 -0.186506 0)
(-6.30874 -0.241204 0)
(-5.80161 -0.289189 0)
(-5.29225 -0.325542 0)
(-4.78934 -0.352949 0)
(-4.30279 -0.367895 0)
(-3.84356 -0.367206 0)
(-3.42166 -0.351332 0)
(-3.04413 -0.325606 0)
(-2.71546 -0.299566 0)
(-2.42372 -0.284687 0)
(-2.13601 -0.28361 0)
(-1.83712 -0.271423 0)
(-1.56759 -0.231493 0)
(-1.35878 -0.170963 0)
(-1.22378 -0.103693 0)
(-1.15898 -0.051461 0)
(-1.14052 -0.024903 0)
(-1.16946 0.0144555 0)
(-1.24762 0.0500056 0)
(-1.3565 0.0587408 0)
(-1.4687 0.0487522 0)
(-1.57741 0.0390916 0)
(-1.67445 0.0155925 0)
(-1.73965 -0.0147308 0)
(-1.78814 0.034736 0)
(-1.85274 0.0521424 0)
(-1.90633 0.0768152 0)
(-1.90752 0.1993 0)
(-1.92062 0.306046 0)
(-1.89757 0.254468 0)
(-1.80609 0.134896 0)
(-1.62169 0.0673367 0)
(-1.50712 -0.114293 0)
(-1.34646 -0.148312 0)
(-1.17262 -0.174848 0)
(-0.967902 -0.205927 0)
(-0.728754 -0.246158 0)
(-0.446556 -0.288588 0)
(-0.12407 -0.28709 0)
(0.198038 -0.14364 0)
(0.552957 -0.0331436 0)
(0.940521 0.0537814 0)
(1.35881 0.15336 0)
(1.65181 0.341593 0)
(1.8206 -0.177872 0)
(2.20258 -0.445279 0)
(2.61001 -0.530292 0)
(2.98779 -0.541542 0)
(3.31501 -0.515386 0)
(3.58488 -0.467156 0)
(3.79973 -0.417535 0)
(3.97262 -0.382871 0)
(4.12791 -0.353232 0)
(4.29038 -0.258471 0)
(4.45756 -0.0620495 0)
(4.58372 0.141719 0)
(4.64627 0.286896 0)
(4.66599 0.388036 0)
(4.68151 0.437598 0)
(4.69973 0.414694 0)
(4.72325 0.33177 0)
(4.77584 0.192604 0)
(4.81684 0.061419 0)
(4.85034 -0.0141196 0)
(4.84029 -0.0698226 0)
(4.8531 -0.111241 0)
(4.84484 -0.120245 0)
(4.81964 -0.106413 0)
(4.77611 -0.0828892 0)
(4.72669 -0.0615978 0)
(4.68463 -0.0482088 0)
(4.65971 -0.0270295 0)
(4.65187 0.000411612 0)
(4.63942 0.0187152 0)
(4.6143 0.0278379 0)
(4.57561 0.0222348 0)
(4.51962 -0.00379817 0)
(4.4412 -0.0254363 0)
(4.35198 -0.0281105 0)
(4.26369 -0.0259433 0)
(4.18358 -0.0320409 0)
(4.1115 -0.0469296 0)
(4.04367 -0.0648179 0)
(3.96782 -0.072706 0)
(3.87135 -0.0590333 0)
(3.74976 -0.0176422 0)
(3.60773 0.0291681 0)
(3.46461 0.0419331 0)
(3.36123 0.0326766 0)
(3.31194 0.0473778 0)
(3.32326 0.0444347 0)
(3.39693 0.0256929 0)
(3.46268 -0.0192315 0)
(3.45949 -0.0460306 0)
(3.4728 -0.0779507 0)
(3.5223 -0.0707942 0)
(3.53696 -0.0232224 0)
(3.52013 -0.0180491 0)
(3.52137 -0.000156966 0)
(3.58169 0.0213563 0)
(3.64087 0.127726 0)
(3.61528 0.225967 0)
(3.51212 0.27014 0)
(3.37043 0.207899 0)
(3.33694 -0.255217 0)
(3.33198 -0.78487 0)
(3.29439 -0.585337 0)
(3.08961 -0.287666 0)
(2.75438 -0.135441 0)
(2.40843 -0.0628176 0)
(2.04698 0.031817 0)
(1.61481 0.12261 0)
(1.139 0.183592 0)
(0.703704 0.225085 0)
(0.332933 0.261639 0)
(-0.0107987 0.184188 0)
(-0.377313 0.122812 0)
(-0.764635 0.0780202 0)
(-1.15951 0.0328381 0)
(-1.52726 -0.0246659 0)
(-1.82608 -0.0725918 0)
(-2.08371 -0.0223797 0)
(-2.31972 0.0112472 0)
(-2.49227 0.0669914 0)
(-2.60686 0.147456 0)
(-2.61098 0.28592 0)
(-2.5671 0.273011 0)
(-2.48233 0.169991 0)
(-2.32569 0.079605 0)
(-2.12364 0.0311142 0)
(-1.89552 -0.0014952 0)
(-1.64607 -0.0384128 0)
(-1.36622 -0.0884136 0)
(-1.05022 -0.149349 0)
(-0.713679 -0.208691 0)
(-0.38414 -0.230696 0)
(-0.0857756 -0.17671 0)
(0.162185 -0.0713563 0)
(0.295193 0.0529377 0)
(0.378353 -0.0860503 0)
(0.565177 -0.183602 0)
(0.802303 -0.214331 0)
(1.03162 -0.194762 0)
(1.21537 -0.155591 0)
(1.3618 -0.134462 0)
(1.49378 -0.0873609 0)
(1.55863 0.0166277 0)
(1.62186 -0.0209404 0)
(1.71989 -0.09465 0)
(1.85085 -0.115522 0)
(1.96938 -0.109129 0)
(2.06404 -0.101086 0)
(2.13501 -0.0867349 0)
(2.18782 -0.0739302 0)
(2.23006 -0.0650022 0)
(2.26989 -0.0585523 0)
(2.30899 -0.0513827 0)
(2.35023 -0.0435359 0)
(2.38571 -0.020822 0)
(2.42418 -0.0110576 0)
(2.45824 0.00737051 0)
(2.47977 0.0330683 0)
(2.49476 0.0511802 0)
(2.51701 0.0551247 0)
(2.54687 0.0618279 0)
(2.57342 0.0716852 0)
(2.5891 0.0719469 0)
(2.58613 0.0656571 0)
(2.54687 0.0892858 0)
(2.45945 0.105353 0)
(2.33793 0.1049 0)
(2.19731 0.0966412 0)
(2.04708 0.0844131 0)
(1.89175 0.0697076 0)
(1.73983 0.0494329 0)
(1.5977 0.0214068 0)
(1.46428 -0.0216052 0)
(1.34595 -0.0988749 0)
(1.28808 -0.209914 0)
(1.22996 -0.189705 0)
(1.18984 -0.10263 0)
(1.13759 0.0233182 0)
(1.03267 0.0478488 0)
(0.931465 0.023086 0)
(0.828001 0.016967 0)
(0.73472 -0.00173011 0)
(0.675822 -0.0256333 0)
(0.657821 -0.0463565 0)
(0.662808 -0.0502754 0)
(0.687337 -0.0680708 0)
(0.744934 -0.101197 0)
(0.818476 -0.115137 0)
(0.872355 0.122563 0)
(0.991631 0.135224 0)
(1.10377 0.164612 0)
(1.23126 0.185008 0)
(1.37528 0.204151 0)
(1.53806 0.220286 0)
(1.72361 0.229101 0)
(1.93473 0.234734 0)
(2.16498 0.281148 0)
(2.32714 0.429854 0)
(2.40416 0.526139 0)
(2.4434 -0.00781743 0)
(2.57483 -0.268784 0)
(2.751 -0.383101 0)
(2.93341 -0.439517 0)
(3.11212 -0.513549 0)
(3.29259 -0.599216 0)
(3.46814 -0.670822 0)
(3.66286 -0.677789 0)
(3.78385 -0.396645 0)
(3.95281 -0.026681 0)
(4.14933 -0.147777 0)
(4.33211 -0.169168 0)
(4.48995 0.00294156 0)
(4.60465 0.382726 0)
(4.74458 0.721862 0)
(4.9198 0.888533 0)
(5.10873 0.953673 0)
(5.27934 0.987972 0)
(5.45322 0.896937 0)
(5.82417 0.721296 0)
(5.89218 -0.591648 0)
(5.95198 -0.704006 0)
(5.95441 -0.590696 0)
(6.0389 -0.530483 0)
(6.04049 -0.151946 0)
(6.13371 0.407249 0)
(6.27939 0.701205 0)
(6.37618 0.848765 0)
(6.6017 0.716481 0)
(6.62923 -0.612606 0)
(6.5979 -0.986594 0)
(6.57372 -1.03506 0)
(6.57584 -1.01706 0)
(6.60164 -0.871625 0)
(6.63358 -0.604023 0)
(6.66448 -0.38958 0)
(6.68047 -0.215909 0)
(6.69649 0.171925 0)
(6.731 0.355718 0)
(6.74664 0.446162 0)
(6.69294 0.485381 0)
(6.66035 0.61126 0)
(6.66632 0.719792 0)
(6.677 0.799583 0)
(6.69016 0.848809 0)
(6.68784 0.876309 0)
(6.68855 0.886196 0)
(6.70264 0.879834 0)
(6.74716 0.843011 0)
(6.8502 0.787208 0)
(7.02961 0.761492 0)
(7.03258 -0.377944 0)
(6.717 -0.6464 0)
(6.5456 -0.73357 0)
(6.51855 -0.859582 0)
(6.48431 -0.861169 0)
(6.45449 -0.845836 0)
(6.4294 -0.835578 0)
(6.42576 -0.814079 0)
(6.44381 -0.800314 0)
(6.47706 -0.788828 0)
(6.5217 -0.781907 0)
(6.57346 -0.779437 0)
(6.62842 -0.78085 0)
(6.6841 -0.785103 0)
(6.73891 -0.791421 0)
(6.7926 -0.798872 0)
(6.84548 -0.805999 0)
(6.89763 -0.812951 0)
(6.94948 -0.816003 0)
(7.00158 -0.808707 0)
(7.05528 -0.801518 0)
(7.11008 -0.794543 0)
(7.16572 -0.787493 0)
(7.22191 -0.780098 0)
(7.27833 -0.772493 0)
(7.33491 -0.764965 0)
(7.39162 -0.757847 0)
(7.44798 -0.749096 0)
(7.50379 -0.741871 0)
(7.55852 -0.735387 0)
(7.61174 -0.726462 0)
(7.66421 -0.717217 0)
(7.71598 -0.704517 0)
(7.76674 -0.68632 0)
(7.81501 -0.66179 0)
(7.85987 -0.633682 0)
(7.89479 -0.605716 0)
(7.92443 -0.605975 0)
(7.95314 -0.615353 0)
(8.00117 -0.567995 0)
(8.00344 -0.384899 0)
(8.08127 -0.329483 0)
(8.15186 -0.0825575 0)
(8.18528 0.399158 0)
(8.27151 0.471348 0)
(8.31211 -0.115918 0)
(8.28695 -0.418073 0)
(8.2596 -0.295566 0)
(8.35569 0.091227 0)
(8.40841 0.579445 0)
(8.50274 0.617518 0)
(8.553 -0.396566 0)
(8.44941 -0.722067 0)
(8.41465 -0.558557 0)
(8.41474 -0.417166 0)
(8.46294 -0.0456811 0)
(8.50508 0.544561 0)
(8.58051 0.331092 0)
(8.57052 -0.356231 0)
(8.53274 -0.357669 0)
(8.52263 0.00332417 0)
(8.54775 0.517747 0)
(8.57752 0.165004 0)
(8.56903 -0.328006 0)
(8.55862 0.0891665 0)
(8.59457 0.504469 0)
(8.61128 0.0762066 0)
(8.58185 -0.312041 0)
(8.55377 0.229305 0)
(8.62009 0.591863 0)
(8.63109 -0.11993 0)
(8.57396 -0.648782 0)
(8.53656 -0.523528 0)
(8.46005 -0.37138 0)
(8.45136 -0.195944 0)
(8.45188 0.33395 0)
(8.51992 0.374812 0)
(8.54176 -0.119186 0)
(8.50382 -0.382886 0)
(8.47903 -0.0111409 0)
(8.4814 0.494059 0)
(8.50199 0.301443 0)
(8.53723 -0.373843 0)
(8.47081 -0.428561 0)
(8.38871 -0.311633 0)
(8.28415 -0.188873 0)
(8.30598 0.0930724 0)
(8.37605 0.351226 0)
(8.42761 0.325951 0)
(8.42286 -0.226666 0)
(8.35862 -0.365031 0)
(8.29786 0.0307224 0)
(8.30698 0.440426 0)
(8.32977 0.34025 0)
(8.32876 -0.364244 0)
(8.27152 -0.572547 0)
(8.23101 -0.461017 0)
(8.16374 -0.286249 0)
(8.02433 -0.207587 0)
(8.01452 0.00305674 0)
(8.06467 0.197444 0)
(8.0991 0.265785 0)
(8.1101 -0.105408 0)
(8.06406 -0.12906 0)
(8.01339 0.189883 0)
(8.01317 0.376473 0)
(7.99456 0.0917499 0)
(7.97898 -0.298182 0)
(7.92136 -0.249179 0)
(7.82666 -0.0850514 0)
(7.78511 0.140503 0)
(7.85118 0.213996 0)
(7.87896 0.314082 0)
(7.8967 0.457402 0)
(7.87724 0.491462 0)
(7.85518 -0.0866774 0)
(7.78806 -0.354983 0)
(7.72305 -0.315406 0)
(7.6164 -0.191779 0)
(7.59219 0.0599374 0)
(7.59745 0.225076 0)
(7.61553 -0.0757078 0)
(7.57407 -0.160421 0)
(7.53453 0.10479 0)
(7.54021 0.258095 0)
(7.55594 0.220157 0)
(7.53315 -0.216734 0)
(7.48704 -0.212038 0)
(7.46044 0.0605368 0)
(7.42927 0.240694 0)
(7.43516 -0.0254577 0)
(7.39574 -0.205728 0)
(7.35532 0.0389599 0)
(7.36684 0.195805 0)
(7.37846 0.250283 0)
(7.35754 0.0253211 0)
(7.34431 -0.210367 0)
(7.28131 -0.228767 0)
(7.19114 -0.242127 0)
(7.14349 -0.0727448 0)
(7.15777 0.0977748 0)
(7.19347 0.189483 0)
(7.21025 0.114104 0)
(7.19097 -0.216788 0)
(7.15716 -0.210129 0)
(7.1282 0.0246429 0)
(7.12344 0.217469 0)
(7.13554 0.0890014 0)
(7.11663 -0.0805915 0)
(7.0889 0.104055 0)
(7.11362 0.221721 0)
(7.13709 0.18267 0)
(7.13248 -0.0878966 0)
(7.09159 -0.226563 0)
(7.03808 -0.160107 0)
(7.0401 -0.00752316 0)
(7.06557 0.139255 0)
(7.11912 0.178418 0)
(7.15602 0.158713 0)
(7.14535 -0.113608 0)
(7.14893 -0.178843 0)
(7.11253 -0.181113 0)
(7.07347 -0.103906 0)
(7.10365 0.172532 0)
(7.13559 0.128801 0)
(7.19459 0.135357 0)
(0.0135809 -0.0630125 0)
(0.0664169 -0.0770579 0)
(0.115274 -0.0914977 0)
(0.172975 -0.0980205 0)
(0.23659 -0.0986478 0)
(0.303454 -0.0911332 0)
(0.367473 -0.0816641 0)
(0.426264 -0.0765454 0)
(0.47775 -0.0728379 0)
(0.521476 -0.0702272 0)
(0.560174 -0.0663033 0)
(0.596413 -0.0622405 0)
(0.632459 -0.0606841 0)
(0.669911 -0.0605974 0)
(0.709768 -0.0629976 0)
(0.752918 -0.0674017 0)
(0.799816 -0.0746813 0)
(0.851168 -0.082154 0)
(0.907482 -0.0910477 0)
(0.970484 -0.100772 0)
(1.04209 -0.110584 0)
(1.12402 -0.121484 0)
(1.21821 -0.135684 0)
(1.3266 -0.149391 0)
(1.44783 -0.160483 0)
(1.57872 -0.173226 0)
(1.71903 -0.189295 0)
(1.866 -0.198237 0)
(2.01705 -0.211135 0)
(2.17281 -0.214954 0)
(2.32142 -0.21914 0)
(2.459 -0.221388 0)
(2.57876 -0.219789 0)
(2.67777 -0.216266 0)
(2.7639 -0.224679 0)
(2.82812 -0.219013 0)
(2.8767 -0.201292 0)
(2.9388 -0.209647 0)
(2.99484 -0.183983 0)
(3.01731 -0.133082 0)
(2.99669 -0.106762 0)
(2.95234 -0.083836 0)
(2.89675 -0.0363259 0)
(2.77813 0.0195438 0)
(2.6128 0.241284 0)
(2.24657 0.328777 0)
(1.78933 0.360403 0)
(1.27184 0.344855 0)
(0.711972 0.347844 0)
(0.125205 0.382041 0)
(-0.490639 0.464452 0)
(-1.15241 0.601497 0)
(-1.88622 0.77277 0)
(-2.74361 0.971057 0)
(-3.81189 1.25514 0)
(-5.12053 1.32767 0)
(-6.52478 1.24592 0)
(-7.93527 1.12209 0)
(-9.29028 1.02875 0)
(-10.5368 0.970921 0)
(-11.6487 0.959959 0)
(-12.6245 0.958872 0)
(-13.4576 0.927322 0)
(-14.1577 0.883127 0)
(-14.749 0.830006 0)
(-15.2395 0.733201 0)
(-15.6073 0.56103 0)
(-15.8862 0.403088 0)
(-16.0211 0.248007 0)
(-16.1148 0.174468 0)
(-16.113 0.0698312 0)
(-15.9636 -0.00554858 0)
(-15.6605 -0.056087 0)
(-15.2369 -0.184923 0)
(-14.7135 -0.309342 0)
(-14.1221 -0.409524 0)
(-13.4794 -0.487513 0)
(-12.7952 -0.542267 0)
(-12.0816 -0.575059 0)
(-11.3528 -0.586797 0)
(-10.6209 -0.582794 0)
(-9.89802 -0.576243 0)
(-9.19217 -0.562081 0)
(-8.50732 -0.5377 0)
(-7.84849 -0.502033 0)
(-7.22107 -0.456457 0)
(-6.62904 -0.403594 0)
(-6.07437 -0.34505 0)
(-5.56105 -0.285239 0)
(-5.09383 -0.257362 0)
(-4.67987 -0.278108 0)
(-4.32496 -0.282212 0)
(-4.02558 -0.222049 0)
(-3.76788 -0.142135 0)
(-3.55204 -0.0563058 0)
(-3.37993 0.015119 0)
(-3.2489 0.0611654 0)
(-3.1635 0.115949 0)
(-3.1075 0.162193 0)
(-3.05442 0.177947 0)
(-2.99972 0.168635 0)
(-2.94098 0.16185 0)
(-2.8854 0.134007 0)
(-2.83355 0.0858808 0)
(-2.75612 0.0883422 0)
(-2.66092 0.0801879 0)
(-2.56663 0.0359491 0)
(-2.4555 -0.00615247 0)
(-2.29975 -0.0447135 0)
(-2.12915 -0.146641 0)
(-1.92871 -0.247234 0)
(-1.70799 -0.269195 0)
(-1.44541 -0.347538 0)
(-1.08491 -0.420203 0)
(-0.688 -0.445952 0)
(-0.276332 -0.477903 0)
(0.152845 -0.536976 0)
(0.618186 -0.623504 0)
(1.16203 -0.752735 0)
(1.81918 -0.924576 0)
(2.55275 -1.0212 0)
(3.29522 -1.115 0)
(4.09422 -1.09916 0)
(4.90888 -0.65007 0)
(5.757 -0.417063 0)
(6.47929 -0.328091 0)
(7.13187 -0.263444 0)
(7.7445 -0.186355 0)
(8.33624 -0.114293 0)
(8.92738 -0.0530714 0)
(9.53403 6.57282e-05 0)
(10.1502 0.0360034 0)
(10.7157 0.033467 0)
(11.1121 -0.0725955 0)
(11.232 -0.222151 0)
(11.2242 -0.242834 0)
(11.2312 -0.26029 0)
(11.2873 -0.303027 0)
(11.397 -0.330592 0)
(11.5257 -0.34421 0)
(11.6373 -0.322828 0)
(11.7168 -0.246956 0)
(11.7695 -0.115503 0)
(11.8351 -0.0127696 0)
(11.8939 0.0442777 0)
(11.9494 0.0710411 0)
(11.9888 0.103527 0)
(12.0171 0.139465 0)
(12.0509 0.147265 0)
(12.0791 0.127964 0)
(12.0844 0.0880249 0)
(12.0692 0.0410075 0)
(12.0309 0.00583682 0)
(11.9664 0.00214455 0)
(11.8852 0.0171803 0)
(11.7891 0.0475623 0)
(11.6871 0.111408 0)
(11.5634 0.159364 0)
(11.4227 0.175308 0)
(11.2631 0.160289 0)
(11.076 0.147921 0)
(10.8616 0.146705 0)
(10.6248 0.161114 0)
(10.3641 0.192298 0)
(10.0716 0.228514 0)
(9.7385 0.245442 0)
(9.36225 0.22471 0)
(8.96374 0.17405 0)
(8.61509 0.0729102 0)
(8.39209 -0.0506791 0)
(8.31964 -0.140748 0)
(8.35887 -0.224416 0)
(8.39631 -0.0729548 0)
(8.34818 -0.000687846 0)
(8.32575 -0.0287034 0)
(8.34512 -0.0585281 0)
(8.33544 -0.00996658 0)
(8.20139 -0.0086128 0)
(7.9259 -0.0656996 0)
(7.53036 -0.16462 0)
(7.07364 -0.129199 0)
(6.61148 -0.049234 0)
(6.15628 0.00466577 0)
(5.71803 0.0169222 0)
(5.21499 0.0719696 0)
(4.57262 0.330584 0)
(3.92618 0.524223 0)
(3.4117 0.620157 0)
(2.96594 0.64214 0)
(2.56006 0.611408 0)
(2.15503 0.669099 0)
(1.69865 0.76911 0)
(1.16754 0.776553 0)
(0.631078 0.667417 0)
(0.117207 0.568397 0)
(-0.412624 0.55922 0)
(-0.957799 0.556768 0)
(-1.44629 0.528447 0)
(-1.87331 0.504638 0)
(-2.23229 0.416792 0)
(-2.5146 0.317945 0)
(-2.74797 0.282091 0)
(-2.89302 0.211391 0)
(-2.9554 0.123998 0)
(-3.01201 0.0312788 0)
(-2.96167 -0.0658607 0)
(-2.82066 -0.188737 0)
(-2.62454 -0.281109 0)
(-2.41939 -0.347584 0)
(-2.20276 -0.392552 0)
(-1.96605 -0.426021 0)
(-1.70602 -0.46972 0)
(-1.40993 -0.54564 0)
(-1.05737 -0.62836 0)
(-0.64873 -0.679238 0)
(-0.201994 -0.677953 0)
(0.278977 -0.662666 0)
(0.809409 -0.573309 0)
(1.29764 -0.295418 0)
(1.78028 -0.243789 0)
(2.20294 -0.278796 0)
(2.6227 -0.273695 0)
(3.03389 -0.222413 0)
(3.41995 -0.156924 0)
(3.74253 -0.131734 0)
(3.9392 -0.115107 0)
(4.00014 -0.0608972 0)
(4.01113 -0.127069 0)
(4.04972 -0.124973 0)
(4.14442 -0.121817 0)
(4.26488 -0.087613 0)
(4.39618 -0.0479718 0)
(4.53387 -0.0202983 0)
(4.6632 -0.00154375 0)
(4.77462 0.0052967 0)
(4.8612 0.00365309 0)
(4.91781 0.00251187 0)
(4.94509 -0.00189436 0)
(4.94573 -0.00686495 0)
(4.92624 -0.0125463 0)
(4.88816 -0.00501212 0)
(4.82795 -0.00213245 0)
(4.7353 -0.00362587 0)
(4.61221 -0.0184452 0)
(4.47223 -0.0248709 0)
(4.33457 -0.0127042 0)
(4.20248 0.0102291 0)
(4.06683 0.046433 0)
(3.92597 0.103498 0)
(3.77809 0.155355 0)
(3.61637 0.18944 0)
(3.44091 0.210987 0)
(3.25127 0.225071 0)
(3.04825 0.235415 0)
(2.83501 0.232173 0)
(2.61658 0.229313 0)
(2.38674 0.230898 0)
(2.13464 0.225484 0)
(1.84847 0.206651 0)
(1.56128 0.23622 0)
(1.32153 0.229932 0)
(1.15578 0.218299 0)
(1.0496 0.232674 0)
(0.972635 0.214312 0)
(0.936451 0.191725 0)
(0.940962 0.163487 0)
(0.932264 0.121852 0)
(0.93352 0.0866921 0)
(0.934004 0.0692573 0)
(0.955734 0.039021 0)
(0.950307 -0.00713775 0)
(0.964575 0.0424917 0)
(1.02696 -0.08374 0)
(1.1633 -0.135127 0)
(1.31649 -0.160408 0)
(1.48538 -0.198145 0)
(1.66705 -0.237222 0)
(1.85965 -0.275717 0)
(2.06245 -0.316355 0)
(2.2792 -0.353675 0)
(2.52442 -0.361172 0)
(2.86588 -0.305609 0)
(3.3486 -0.173516 0)
(3.81662 -0.0358001 0)
(4.15012 -0.0178227 0)
(4.4468 -0.013615 0)
(4.7385 -0.000493546 0)
(5.02508 0.0255862 0)
(5.29689 0.0641159 0)
(5.54331 0.0971478 0)
(5.78081 0.154897 0)
(6.04783 0.00021931 0)
(6.47568 -0.147438 0)
(6.98464 -0.15172 0)
(7.41067 -0.0533375 0)
(7.71074 -0.140103 0)
(7.82265 -0.323201 0)
(7.96141 -0.493725 0)
(8.21613 -0.600319 0)
(8.54512 -0.654915 0)
(8.89149 -0.601878 0)
(9.18254 -0.6889 0)
(9.47381 -0.650797 0)
(9.54644 0.20479 0)
(9.81674 0.366232 0)
(10.0741 0.268097 0)
(10.3813 0.223851 0)
(10.661 0.0731394 0)
(10.7013 -0.313836 0)
(10.6084 -0.391332 0)
(10.6206 -0.383689 0)
(10.6706 -0.501019 0)
(10.7057 0.32901 0)
(10.7494 0.503245 0)
(10.7418 0.494418 0)
(10.7231 0.477455 0)
(10.7528 0.379327 0)
(10.8903 0.258246 0)
(11.1041 0.187291 0)
(11.3218 0.134156 0)
(11.3888 -0.046035 0)
(11.2761 -0.0962205 0)
(11.0863 -0.10865 0)
(10.9649 -0.0579455 0)
(10.8953 -0.15472 0)
(10.7771 -0.21982 0)
(10.6482 -0.25334 0)
(10.5394 -0.254123 0)
(10.4456 -0.254941 0)
(10.3533 -0.260271 0)
(10.2559 -0.276069 0)
(10.1457 -0.31403 0)
(10.01 -0.365497 0)
(9.82232 -0.302307 0)
(9.79938 0.451606 0)
(9.89683 0.53312 0)
(9.92595 0.398008 0)
(9.8803 0.379766 0)
(9.84969 0.395076 0)
(9.83047 0.389344 0)
(9.82829 0.363844 0)
(9.86502 0.334884 0)
(9.93661 0.304271 0)
(10.0303 0.282781 0)
(10.1342 0.26819 0)
(10.2419 0.261776 0)
(10.3493 0.260637 0)
(10.455 0.26361 0)
(10.5587 0.268628 0)
(10.6616 0.274105 0)
(10.7651 0.279388 0)
(10.8712 0.284539 0)
(10.9815 0.288704 0)
(11.0946 0.28485 0)
(11.2078 0.281592 0)
(11.3208 0.278748 0)
(11.4341 0.276059 0)
(11.5481 0.273664 0)
(11.6627 0.271381 0)
(11.7775 0.269121 0)
(11.8918 0.267043 0)
(12.0046 0.264918 0)
(12.1153 0.263735 0)
(12.2236 0.263295 0)
(12.3298 0.261802 0)
(12.4354 0.259372 0)
(12.5421 0.255704 0)
(12.6526 0.250821 0)
(12.7687 0.245383 0)
(12.8885 0.241818 0)
(12.9997 0.246532 0)
(13.0857 0.254474 0)
(13.1666 0.25629 0)
(13.2984 0.222907 0)
(13.509 0.164017 0)
(13.778 0.113716 0)
(13.9661 -0.00389428 0)
(13.897 -0.181753 0)
(13.7264 -0.152943 0)
(13.6473 0.0915722 0)
(13.7481 0.236534 0)
(13.9912 0.181152 0)
(14.1118 -0.12255 0)
(14.0012 -0.22595 0)
(13.8905 -0.243139 0)
(13.8452 0.293806 0)
(13.9557 0.357781 0)
(14.1113 0.286048 0)
(14.363 0.190208 0)
(14.5523 0.001315 0)
(14.4864 -0.183907 0)
(14.3627 -0.147519 0)
(14.3647 0.19616 0)
(14.552 0.236426 0)
(14.7163 0.0395475 0)
(14.6451 -0.176844 0)
(14.5402 -0.042389 0)
(14.6176 0.180819 0)
(14.6942 -0.0139069 0)
(14.6218 -0.175444 0)
(14.5495 0.0201501 0)
(14.6276 0.191036 0)
(14.6467 -0.098827 0)
(14.5346 -0.222035 0)
(14.4497 0.121991 0)
(14.4848 0.310319 0)
(14.6175 0.306417 0)
(14.8373 0.238385 0)
(15.0742 0.109536 0)
(15.0525 -0.160221 0)
(14.8697 -0.166759 0)
(14.8026 0.0890353 0)
(14.9017 0.188115 0)
(14.9601 0.0420875 0)
(14.8791 -0.180164 0)
(14.6863 -0.145412 0)
(14.6388 0.197157 0)
(14.7486 0.234708 0)
(14.9554 0.265226 0)
(15.2346 0.166768 0)
(15.2778 -0.105489 0)
(15.0806 -0.176847 0)
(14.8316 -0.167617 0)
(14.7525 0.140025 0)
(14.8533 0.197049 0)
(14.8933 0.0288739 0)
(14.7905 -0.18701 0)
(14.574 -0.17391 0)
(14.5004 0.193093 0)
(14.5363 0.239112 0)
(14.6441 0.257795 0)
(14.8767 0.262753 0)
(15.1792 0.181622 0)
(15.2767 -0.0514705 0)
(15.0994 -0.183555 0)
(14.8146 -0.136944 0)
(14.7101 0.0375769 0)
(14.782 0.125752 0)
(14.7738 -0.0716818 0)
(14.6209 -0.182061 0)
(14.488 -0.0227019 0)
(14.5389 0.111515 0)
(14.7437 0.217633 0)
(14.9816 0.136696 0)
(14.9978 -0.108811 0)
(14.7523 -0.194301 0)
(14.4435 -0.190664 0)
(14.2108 -0.213078 0)
(14.0358 -0.210486 0)
(13.9823 0.0924816 0)
(14.0804 0.151251 0)
(14.2423 0.231415 0)
(14.4712 0.17756 0)
(14.554 -0.0514127 0)
(14.4226 -0.14889 0)
(14.3374 0.00043188 0)
(14.4075 0.109255 0)
(14.4516 -0.058824 0)
(14.2828 -0.175419 0)
(14.0564 -0.132444 0)
(14.0068 0.0787473 0)
(14.0962 0.140212 0)
(14.1848 0.000715499 0)
(14.0744 -0.148548 0)
(14.0093 -0.00466517 0)
(14.0732 0.117166 0)
(14.1454 -0.0297413 0)
(13.9816 -0.159505 0)
(13.7178 -0.149015 0)
(13.5779 -0.00649238 0)
(13.5793 0.1061 0)
(13.713 0.180039 0)
(13.9547 0.192823 0)
(14.13 0.0292507 0)
(14.055 -0.119194 0)
(13.8152 -0.170925 0)
(13.5982 -0.0751906 0)
(13.5788 0.0658545 0)
(13.7191 0.150689 0)
(13.846 -0.00391847 0)
(13.7634 -0.14589 0)
(13.6769 -0.0754028 0)
(13.7041 0.047959 0)
(13.7413 -0.0773154 0)
(13.6165 -0.162224 0)
(13.4367 -0.125571 0)
(13.3966 0.0595535 0)
(13.5364 0.132867 0)
(13.7496 0.127138 0)
(13.8714 -0.0344115 0)
(13.771 -0.151517 0)
(13.568 -0.14752 0)
(13.3894 -0.117442 0)
(13.3677 0.0459855 0)
(13.5085 0.076337 0)
(13.7526 0.160128 0)
(14.0012 0.0654247 0)
(14.0089 -0.118731 0)
(13.8642 -0.152572 0)
(13.7689 -0.114136 0)
(-0.00308447 -0.123941 0)
(0.0585424 -0.1533 0)
(0.105214 -0.173564 0)
(0.159805 -0.191242 0)
(0.222877 -0.203907 0)
(0.291999 -0.20346 0)
(0.358665 -0.194803 0)
(0.419026 -0.186703 0)
(0.469825 -0.175497 0)
(0.513239 -0.16741 0)
(0.553377 -0.161917 0)
(0.591542 -0.158705 0)
(0.629497 -0.160625 0)
(0.66871 -0.164884 0)
(0.71004 -0.173304 0)
(0.754551 -0.183992 0)
(0.80225 -0.198568 0)
(0.854501 -0.213547 0)
(0.9116 -0.231682 0)
(0.97595 -0.253279 0)
(1.04986 -0.277243 0)
(1.13471 -0.304797 0)
(1.2317 -0.339968 0)
(1.3434 -0.374366 0)
(1.46681 -0.401356 0)
(1.59725 -0.427168 0)
(1.73499 -0.456807 0)
(1.87832 -0.473172 0)
(2.02426 -0.495359 0)
(2.17097 -0.49706 0)
(2.31127 -0.492463 0)
(2.43966 -0.475382 0)
(2.54999 -0.447752 0)
(2.64296 -0.419631 0)
(2.72832 -0.412008 0)
(2.7873 -0.364724 0)
(2.84234 -0.361424 0)
(2.89461 -0.376933 0)
(2.95559 -0.339523 0)
(2.98414 -0.22903 0)
(2.98058 -0.138328 0)
(2.88378 0.00173326 0)
(2.68178 0.15832 0)
(2.35565 0.30109 0)
(1.96647 0.597357 0)
(1.3945 0.885077 0)
(0.611028 1.04762 0)
(-0.349468 1.10672 0)
(-1.44768 1.11191 0)
(-2.62812 1.12936 0)
(-3.85547 1.21391 0)
(-5.11265 1.37571 0)
(-6.3913 1.59284 0)
(-7.68363 1.87114 0)
(-8.94683 2.21433 0)
(-10.1798 2.45971 0)
(-11.3923 2.57378 0)
(-12.5915 2.5914 0)
(-13.7579 2.503 0)
(-14.8273 2.29484 0)
(-15.764 2.05357 0)
(-16.558 1.79316 0)
(-17.193 1.52056 0)
(-17.6841 1.30702 0)
(-18.0433 1.13762 0)
(-18.278 0.953281 0)
(-18.361 0.762708 0)
(-18.3562 0.548195 0)
(-18.2497 0.327951 0)
(-18.0085 0.187351 0)
(-17.7372 -0.00646925 0)
(-17.4442 -0.266781 0)
(-17.0531 -0.506662 0)
(-16.5974 -0.766319 0)
(-16.0599 -0.978873 0)
(-15.4601 -1.13802 0)
(-14.8144 -1.26566 0)
(-14.1287 -1.3683 0)
(-13.4074 -1.44215 0)
(-12.6606 -1.48933 0)
(-11.8959 -1.51511 0)
(-11.1235 -1.51053 0)
(-10.3546 -1.49098 0)
(-9.5961 -1.45607 0)
(-8.85524 -1.40167 0)
(-8.14021 -1.32848 0)
(-7.4583 -1.24182 0)
(-6.81042 -1.15083 0)
(-6.187 -1.06284 0)
(-5.58087 -0.976932 0)
(-5.1047 -0.843015 0)
(-4.81402 -0.69881 0)
(-4.58886 -0.593452 0)
(-4.37262 -0.478477 0)
(-4.16951 -0.352311 0)
(-3.97775 -0.237705 0)
(-3.79844 -0.144037 0)
(-3.64242 -0.0497437 0)
(-3.50013 0.020846 0)
(-3.36657 0.0461073 0)
(-3.24346 0.0358021 0)
(-3.12745 0.0413109 0)
(-3.01955 0.0215388 0)
(-2.92196 -0.0224788 0)
(-2.81711 -0.0367293 0)
(-2.70469 -0.0502908 0)
(-2.56694 -0.120337 0)
(-2.36462 -0.357495 0)
(-1.95361 -0.524446 0)
(-1.46317 -0.617545 0)
(-0.945661 -0.664905 0)
(-0.396775 -0.654591 0)
(0.198797 -0.664213 0)
(0.836654 -0.732184 0)
(1.53597 -0.76251 0)
(2.29859 -0.781135 0)
(3.12284 -0.820879 0)
(4.01406 -0.88821 0)
(4.95593 -0.989951 0)
(5.903 -1.07635 0)
(6.79009 -1.10738 0)
(7.51623 -1.16779 0)
(8.03395 -1.29867 0)
(8.51292 -1.36855 0)
(9.02522 -1.66553 0)
(9.66612 -1.73303 0)
(10.3367 -1.69378 0)
(11.0161 -1.61291 0)
(11.687 -1.53168 0)
(12.3371 -1.47423 0)
(12.9567 -1.43864 0)
(13.5352 -1.37169 0)
(14.0616 -1.11823 0)
(14.4625 -0.619507 0)
(14.7622 -0.149985 0)
(15.1133 0.0354399 0)
(15.4652 0.0812571 0)
(15.8269 0.0515441 0)
(16.1913 0.0153205 0)
(16.5362 0.00970131 0)
(16.8162 0.0293413 0)
(16.9913 -0.0207397 0)
(17.0298 -0.090913 0)
(17.0057 -0.115851 0)
(16.9922 -0.127963 0)
(16.9978 -0.139612 0)
(17.0067 -0.13033 0)
(17.0141 -0.112515 0)
(17.0202 -0.094877 0)
(17.0342 -0.0695633 0)
(17.059 -0.030192 0)
(17.1011 0.0116357 0)
(17.1475 0.0689254 0)
(17.1979 0.128137 0)
(17.2562 0.164743 0)
(17.2994 0.19098 0)
(17.3179 0.208636 0)
(17.2933 0.222008 0)
(17.1832 0.245737 0)
(16.9909 0.288724 0)
(16.7461 0.335743 0)
(16.4678 0.36805 0)
(16.1552 0.393605 0)
(15.7919 0.442616 0)
(15.3567 0.520518 0)
(14.8401 0.634613 0)
(14.2568 0.752124 0)
(13.6559 0.763777 0)
(13.1431 0.574959 0)
(12.7958 0.265305 0)
(12.67 -0.0250316 0)
(12.6572 -0.112639 0)
(12.6681 -0.0414363 0)
(12.5238 -0.0177839 0)
(12.1006 -0.112556 0)
(11.4866 -0.140285 0)
(10.8547 0.0124214 0)
(10.2257 0.238003 0)
(9.5494 0.463444 0)
(8.80237 0.618377 0)
(8.10304 0.773368 0)
(7.51633 0.901787 0)
(6.98612 0.946783 0)
(6.46085 0.964786 0)
(5.93459 1.00876 0)
(5.45943 1.03296 0)
(5.10462 0.89086 0)
(4.7607 0.878533 0)
(4.35485 0.872499 0)
(3.85251 0.816168 0)
(3.26078 0.926184 0)
(2.62557 1.11388 0)
(1.94716 1.21625 0)
(1.21876 1.19926 0)
(0.434717 1.19622 0)
(-0.305674 1.23756 0)
(-0.89584 1.1879 0)
(-1.34656 1.08958 0)
(-1.74656 1.01803 0)
(-2.09405 0.861166 0)
(-2.39903 0.710127 0)
(-2.67118 0.580497 0)
(-2.847 0.375102 0)
(-2.95576 0.171303 0)
(-2.91788 -0.0589375 0)
(-2.767 -0.339663 0)
(-2.48111 -0.527562 0)
(-2.13381 -0.596092 0)
(-1.75466 -0.639242 0)
(-1.343 -0.692075 0)
(-0.910444 -0.743943 0)
(-0.470923 -0.805655 0)
(-0.0313286 -0.906631 0)
(0.427258 -1.0023 0)
(0.908907 -1.04116 0)
(1.39347 -1.03169 0)
(1.85869 -1.02538 0)
(2.29054 -1.00779 0)
(2.66987 -0.85664 0)
(3.0133 -0.897257 0)
(3.30457 -0.947489 0)
(3.58208 -0.946625 0)
(3.85802 -0.88704 0)
(4.17703 -0.756009 0)
(4.55666 -0.544206 0)
(4.85693 -0.240985 0)
(5.0677 -0.00937083 0)
(5.28574 -0.0448007 0)
(5.38404 -0.195845 0)
(5.35341 -0.280178 0)
(5.30789 -0.276382 0)
(5.27295 -0.26156 0)
(5.25994 -0.231306 0)
(5.25785 -0.189698 0)
(5.2568 -0.148007 0)
(5.26275 -0.105576 0)
(5.2606 -0.0623596 0)
(5.26166 -0.0191641 0)
(5.24093 0.0133579 0)
(5.20522 0.0508287 0)
(5.15267 0.0850311 0)
(5.09214 0.136713 0)
(5.00401 0.194292 0)
(4.87354 0.237179 0)
(4.7097 0.252985 0)
(4.53604 0.266221 0)
(4.36378 0.287274 0)
(4.19248 0.331762 0)
(4.02204 0.394468 0)
(3.85468 0.461389 0)
(3.67968 0.515408 0)
(3.49443 0.556995 0)
(3.29848 0.590183 0)
(3.08967 0.618724 0)
(2.87029 0.623127 0)
(2.6455 0.628811 0)
(2.40722 0.647797 0)
(2.14317 0.664873 0)
(1.84536 0.641136 0)
(1.5383 0.597868 0)
(1.27322 0.505464 0)
(1.07517 0.413101 0)
(0.943864 0.36471 0)
(0.87482 0.315826 0)
(0.841377 0.262563 0)
(0.826529 0.225175 0)
(0.831626 0.183913 0)
(0.837843 0.140507 0)
(0.876476 0.111785 0)
(0.918494 0.073865 0)
(0.971494 0.0388428 0)
(1.08486 -0.00566249 0)
(1.2493 -0.105534 0)
(1.44463 -0.184857 0)
(1.68613 -0.212472 0)
(1.95976 -0.237988 0)
(2.25447 -0.260672 0)
(2.55172 -0.283705 0)
(2.82621 -0.323541 0)
(3.06016 -0.384535 0)
(3.28408 -0.450727 0)
(3.49542 -0.658434 0)
(3.83953 -0.804157 0)
(4.26347 -0.743692 0)
(4.71307 -0.730774 0)
(5.16531 -0.762267 0)
(5.6204 -0.776077 0)
(6.07885 -0.775826 0)
(6.53942 -0.760553 0)
(6.99426 -0.733026 0)
(7.44781 -0.688439 0)
(7.88666 -0.785045 0)
(8.27832 -0.877608 0)
(8.62805 -0.878491 0)
(8.96578 -0.636259 0)
(9.30672 -0.226119 0)
(9.74022 -0.0634723 0)
(10.1349 -0.100784 0)
(10.5182 -0.228142 0)
(10.9287 -0.311796 0)
(11.3084 -0.23152 0)
(11.5736 -0.242502 0)
(11.6435 -0.226639 0)
(11.6927 -0.453237 0)
(11.9246 -0.461145 0)
(12.1347 -0.570743 0)
(12.3545 -0.53276 0)
(12.5272 -0.253872 0)
(12.6062 0.209834 0)
(12.7035 0.223022 0)
(12.7734 0.21805 0)
(12.7802 0.0828765 0)
(12.8892 -0.116778 0)
(13.0955 -0.126718 0)
(13.181 -0.124853 0)
(13.2118 -0.148822 0)
(13.1966 -0.249767 0)
(13.1305 -0.354289 0)
(13.0046 -0.34784 0)
(12.8895 -0.191413 0)
(12.7634 0.0759017 0)
(12.7377 0.423572 0)
(12.7672 0.443851 0)
(12.7555 0.341997 0)
(12.6712 0.380992 0)
(12.5357 0.465767 0)
(12.3742 0.473984 0)
(12.2215 0.459689 0)
(12.0736 0.461756 0)
(11.9227 0.463632 0)
(11.7584 0.470735 0)