/*--------------------------------*- C++ -*----------------------------------*\
| =========                 |                                                 |
| \\      /  F ield         | OpenFOAM: The Open Source CFD Toolbox           |
|  \\    /   O peration     | Version:  v1812                                 |
|   \\  /    A nd           | Web:      www.OpenFOAM.com                      |
|    \\/     M anipulation  |                                                 |
\*---------------------------------------------------------------------------*/
FoamFile
{
    version     2.0;
    format      ascii;
    class       volScalarField;
    location    "1.8";
    object      p;
}
// * * * * * * * * * * * * * * * * * * * * * * * * * * * * * * * * * * * * * //

dimensions      [1 -1 -2 0 0 0 0];


internalField   nonuniform List<scalar> 
8000
(
10.33333
10.33333
10.33333
10.33333
10.33333
10.33333
10.33333
10.33333
10.33333
10.33333
10.33333
10.33333
10.33333
10.33333
10.33333
10.33333
10.33333
10.33333
10.33333
10.33333
10.33333
10.33333
10.33333
10.33333
10.33333
10.33333
10.33333
10.33333
10.33333
10.33333
10.33333
10.33333
10.33333
10.33333
10.33333
10.33333
10.33333
10.33333
10.33333
10.33333
10.33333
10.33333
10.33333
10.33333
10.33333
10.33333
10.33333
10.33333
10.33333
10.33333
10.33333
10.33333
10.33333
10.33333
10.33333
10.33333
10.33333
10.33333
10.33333
10.33333
10.33333
10.33333
10.33333
10.33333
10.33333
10.33333
10.33333
10.33333
10.33333
10.33333
10.33333
10.33333
10.33333
10.33333
10.33333
10.33333
10.33333
10.33333
10.33333
10.33333
10.33333
10.33333
10.33333
10.33333
10.33333
10.33333
10.33333
10.33333
10.33333
10.33333
10.33333
10.33333
10.33333
10.33333
10.33333
10.33333
10.33333
10.33333
10.33333
10.33333
10.33333
10.33333
10.33333
10.33333
10.33333
10.33333
10.33333
10.33333
10.33333
10.33333
10.33333
10.33333
10.33333
10.33333
10.33333
10.33333
10.33333
10.33333
10.33333
10.33333
10.33333
10.33333
10.33333
10.33333
10.33333
10.33333
10.33333
10.33333
10.33333
10.33333
10.33333
10.33333
10.33333
10.33333
10.33333
10.33333
10.33333
10.33333
10.33333
10.33333
10.33333
10.33333
10.33333
10.33333
10.33333
10.33333
10.33333
10.33333
10.33333
10.33333
10.33333
10.33333
10.33333
10.33333
10.33333
10.33333
10.33333
10.33333
10.33333
10.33333
10.33333
10.33333
10.33333
10.33333
10.33333
10.33333
10.33333
10.33333
10.33333
10.33333
10.33333
10.33333
10.33333
10.33333
10.33333
10.33333
10.33333
10.33333
10.33333
10.33333
10.33333
10.33333
10.33333
10.33333
10.33333
10.33333
10.33333
10.33333
10.33333
10.33333
10.33333
10.33333
10.33333
10.33333
10.33333
10.33333
10.33333
10.33333
10.33333
10.33333
10.33333
10.33333
10.33333
10.33333
10.33333
10.33333
10.33333
10.33333
10.33333
10.33333
10.33333
10.33333
10.33333
10.33333
10.33333
10.33333
10.33333
10.33333
10.33333
10.33333
10.33333
10.33333
10.33333
10.33333
10.33333
10.33333
10.33333
10.33333
10.33333
10.33333
10.33333
10.33333
10.33333
10.33333
10.33333
10.33333
10.33333
10.33333
10.33333
10.33333
10.33333
10.33333
10.33333
10.33333
10.33333
10.33333
10.33333
10.33333
10.33333
10.33333
10.33333
10.33333
10.33333
10.33333
10.33333
10.33333
10.33333
10.33333
10.33333
10.33333
10.33333
10.33333
10.33333
10.33333
10.33333
10.33333
10.33333
10.33333
10.33333
10.33333
10.33333
10.33333
10.33333
10.33333
10.33333
10.33333
10.33333
10.33333
10.33333
10.33333
10.33333
10.33333
10.33333
10.33333
10.33333
10.33333
10.33333
10.33333
10.33333
10.33333
10.33333
10.33333
10.33333
10.33333
10.33333
10.33333
10.33333
10.33333
10.33333
10.33333
10.33333
10.33333
10.33333
10.33333
10.33333
10.33333
10.33333
10.33333
10.33333
10.33333
10.33333
10.33333
10.33333
10.33333
10.33333
10.33333
10.33333
10.33333
10.33333
10.33333
10.33333
10.33333
10.33333
10.33333
10.33333
10.33333
10.33333
10.33333
10.33333
10.33333
10.33333
10.33333
10.33333
10.33333
10.33333
10.33333
10.33333
10.33333
10.33333
10.33333
10.33333
10.33333
10.33333
10.33333
10.33333
10.33333
10.33333
10.33333
10.33333
10.33333
10.33333
10.33333
10.33333
10.33333
10.33333
10.33333
10.33333
10.33333
10.33333
10.33333
10.33333
10.33333
10.33333
10.33333
10.33333
10.33333
10.33333
10.33333
10.33333
10.33333
10.33333
10.33333
10.33333
10.33333
10.33333
10.33333
10.33333
10.33333
10.33333
10.33333
10.33333
10.33333
10.33333
10.33333
10.33333
10.33333
10.33333
10.33333
10.33333
10.33333
10.33333
10.33333
10.33333
10.33333
10.33333
10.33333
10.33333
10.33333
10.33333
10.33333
10.33333
10.33333
10.33333
10.33333
10.33333
10.33333
10.33333
10.33333
10.33333
10.33333
10.33333
10.33333
10.33333
10.33333
10.33333
10.33333
10.33333
10.33333
10.33333
10.33333
10.33333
10.33333
10.33333
10.33333
10.33333
10.33333
10.33333
10.33333
10.33333
10.33333
10.33333
10.33333
10.33333
10.33333
10.33333
10.33333
10.33333
10.33333
10.33333
10.33333
10.33333
10.33333
10.33333
10.33333
10.33333
10.33333
10.33333
10.33333
10.33333
10.33333
10.33333
10.33333
10.33333
10.33333
10.33333
10.33333
10.33333
10.33333
10.33333
10.33333
10.33333
10.33333
10.33333
10.33333
10.33333
10.33333
10.33333
10.33333
10.33333
10.33333
10.33333
10.33333
10.33333
10.33333
10.33333
10.33333
10.33333
10.33333
10.33333
10.33333
10.33333
10.33333
10.33333
10.33333
10.33333
10.33333
10.33333
10.33333
10.33333
10.33333
10.33333
10.33333
10.33333
10.33333
10.33333
10.33333
10.33333
10.33333
10.33333
10.33333
10.33333
10.33333
10.33333
10.33333
10.33333
10.33333
10.33333
10.33333
10.33333
10.33333
10.33333
10.33333
10.33333
10.33333
10.33333
10.33333
10.33333
10.33333
10.33333
10.33333
10.33333
10.33333
10.33333
10.33333
10.33333
10.33333
10.33333
10.33333
10.33333
10.33333
10.33333
10.33333
10.33333
10.33333
10.33333
10.33333
10.33333
10.33333
10.33333
10.33333
10.33333
10.33333
10.33333
10.33333
10.33333
10.33333
10.33333
10.33333
10.33333
10.33333
10.33333
10.33333
10.33333
10.33333
10.33333
10.33333
10.33333
10.33333
10.33333
10.33333
10.33333
10.33333
10.33333
10.33333
10.33333
10.33333
10.33333
10.33333
10.33333
10.33333
10.33333
10.33333
10.33333
10.33333
10.33333
10.33333
10.33333
10.33333
10.33333
10.33333
10.33333
10.33333
10.33333
10.33333
10.33333
10.33333
10.33333
10.33333
10.33333
10.33333
10.33333
10.33333
10.33333
10.33333
10.33333
10.33333
10.33333
10.33333
10.33333
10.33333
10.33333
10.33333
10.33333
10.33333
10.33333
10.33333
10.33333
10.33333
10.33333
10.33333
10.33333
10.33333
10.33333
10.33333
10.33333
10.33333
10.33333
10.33333
10.33333
10.33333
10.33333
10.33333
10.33333
10.33333
10.33333
10.33333
10.33333
10.33333
10.33333
10.33333
10.33333
10.33333
10.33333
10.33333
10.33333
10.33333
10.33333
10.33333
10.33333
10.33333
10.33333
10.33333
10.33333
10.33333
10.33333
10.33333
10.33333
10.33333
10.33333
10.33333
10.33333
10.33333
10.33333
10.33333
10.33333
10.33333
10.33333
10.33333
10.33333
10.33333
10.33333
10.33333
10.33333
10.33333
10.33333
10.33333
10.33333
10.33333
10.33333
10.33333
10.33333
10.33333
10.33333
10.33333
10.33333
10.33333
10.33333
10.33333
10.33333
10.33333
10.33333
10.33333
10.33333
10.33333
10.33333
10.33333
10.33333
10.33333
10.33333
10.33333
10.33333
10.33333
10.33333
10.33333
10.33333
10.33333
10.33333
10.33333
10.33333
10.33333
10.33333
10.33333
10.33333
10.33333
10.33333
10.33333
10.33333
10.33333
10.33333
10.33333
10.33333
10.33333
10.33333
10.33333
10.33333
10.33333
10.33333
10.33333
10.33333
10.33333
10.33333
10.33333
10.33333
10.33333
10.33333
10.33333
10.33333
10.33333
10.33333
10.33333
10.33333
10.33333
10.33333
10.33333
10.33333
10.33333
10.33333
10.33333
10.33333
10.33333
10.33333
10.33333
10.33333
10.33333
10.33333
10.33333
10.33333
10.33333
10.33333
10.33333
10.33333
10.33333
10.33333
10.33333
10.33333
10.33333
10.33333
10.33333
10.33333
10.33333
10.33333
10.33333
10.33333
10.33333
10.33333
10.33333
10.33333
10.33333
10.33333
10.33333
10.33333
10.33333
10.33333
10.33333
10.33333
10.33333
10.33333
10.33333
10.33333
10.33333
10.33333
10.33333
10.33333
10.33333
10.33333
10.33333
10.33333
10.33333
10.33333
10.33333
10.33333
10.33333
10.33333
10.33333
10.33333
10.33333
10.33333
10.33333
10.33333
10.33333
10.33333
10.33333
10.33333
10.33333
10.33333
10.33333
10.33333
10.33333
10.33333
10.33333
10.33333
10.33333
10.33333
10.33333
10.33333
10.33333
10.33333
10.33333
10.33333
10.33333
10.33333
10.33333
10.33333
10.33333
10.33333
10.33333
10.33333
10.33333
10.33333
10.33333
10.33333
10.33333
10.33333
10.33333
10.33333
10.33333
10.33333
10.33333
10.33333
10.33333
10.33333
10.33333
10.33333
10.33333
10.33333
10.33333
10.33333
10.33333
10.33333
10.33333
10.33333
10.33333
10.33333
10.33333
10.33333
10.33333
10.33333
10.33333
10.33333
10.33333
10.33333
10.33333
10.33333
10.33333
10.33333
10.33333
10.33333
10.33333
10.33333
10.33333
10.33333
10.33333
10.33333
10.33333
10.33333
10.33333
10.33333
10.33333
10.33333
10.33333
10.33333
10.33333
10.33333
10.33333
10.33333
10.33333
10.33333
10.33333
10.33333
10.33333
10.33333
10.33333
10.33333
10.33333
10.33333
10.33333
10.33333
10.33333
10.33333
10.33333
10.33333
10.33333
10.33333
10.33333
10.33333
10.33333
10.33333
10.33333
10.33333
10.33333
10.33333
10.33333
10.33333
10.33333
10.33333
10.33333
10.33333
10.33333
10.33333
10.33333
10.33333
10.33333
10.33333
10.33333
10.33333
10.33333
10.33333
10.33333
10.33333
10.33333
10.33333
10.33333
10.33333
10.33333
10.33333
10.33333
10.33333
10.33333
10.33333
10.33333
10.33333
10.33333
10.33333
10.33333
10.33333
10.33333
10.33333
10.33333
10.33333
10.33333
10.33333
10.33333
10.33333
10.33333
10.33333
10.33333
10.33333
10.33333
10.33333
10.33333
10.33333
10.33333
10.33333
10.33333
10.33333
10.33333
10.33333
10.33333
10.33333
10.33333
10.33333
10.33333
10.33333
10.33333
10.33333
10.33333
10.33333
10.33333
10.33333
10.33333
10.33333
10.33333
10.33333
10.33333
10.33333
10.33333
10.33333
10.33333
10.33333
10.33333
10.33333
10.33333
10.33333
10.33333
10.33333
10.33333
10.33333
10.33333
10.33333
10.33333
10.33333
10.33333
10.33333
10.33333
10.33333
10.33333
10.33333
10.33333
10.33333
10.33333
10.33333
10.33333
10.33333
10.33333
10.33333
10.33333
10.33333
10.33333
10.33333
10.33333
10.33333
10.33333
10.33333
10.33333
10.33333
10.33333
10.33333
10.33333
10.33333
10.33333
10.33333
10.33333
10.33333
10.33333
10.33333
10.33333
10.33333
10.33333
10.33333
10.33333
10.33333
10.33333
10.33333
10.33333
10.33333
10.33333
10.33333
10.33333
10.33333
10.33333
10.33333
10.33333
10.33333
10.33333
10.33333
10.33333
10.33333
10.33333
10.33333
10.33333
10.33333
10.33333
10.33333
10.33333
10.33333
10.33333
10.33333
10.33333
10.33333
10.33333
10.33333
10.33333
10.33333
10.33333
10.33333
10.33333
10.33333
10.33333
10.33333
10.33333
10.33333
10.33333
10.33333
10.33333
10.33333
10.33333
10.33333
10.33333
10.33333
10.33333
10.33333
10.33333
10.33333
10.33333
10.33333
10.33333
10.33333
10.33333
10.33333
10.33333
10.33333
10.33333
10.33333
10.33333
10.33333
10.33333
10.33333
10.33333
10.33333
10.33333
10.33333
10.33333
10.33333
10.33333
10.33333
10.33333
10.33333
10.33333
10.33333
10.33333
10.33333
10.33333
10.33333
10.33333
10.33333
10.33333
10.33333
10.33333
10.33333
10.33333
10.33333
10.33333
10.33333
10.33333
10.33333
10.33333
10.33333
10.33333
10.33333
10.33333
10.33333
10.33333
10.33333
10.33333
10.33333
10.33333
10.33333
10.33333
10.33333
10.33333
10.33333
10.33333
10.33333
10.33333
10.33333
10.33333
10.33333
10.33333
10.33333
10.33333
10.33333
10.33333
10.33333
10.33333
10.33333
10.33333
10.33333
10.33333
10.33333
10.33333
10.33333
10.33333
10.33333
10.33333
10.33333
10.33333
10.33333
10.33333
10.33333
10.33333
10.33333
10.33333
10.33333
10.33333
10.33333
10.33333
10.33333
10.33333
10.33333
10.33333
10.33333
10.33333
10.33333
10.33333
10.33333
10.33333
10.33333
10.33333
10.33333
10.33333
10.33333
10.33333
10.33333
10.33333
10.33333
10.33333
10.33333
10.33333
10.33333
10.33333
10.33333
10.33333
10.33333
10.33333
10.33333
10.33333
10.33333
10.33333
10.33333
10.33333
10.33333
10.33333
10.33333
10.33333
10.33333
10.33333
10.33333
10.33333
10.33333
10.33333
10.33333
10.33333
10.33333
10.33333
10.33333
10.33333
10.33333
10.33333
10.33333
10.33333
10.33333
10.33333
10.33333
10.33333
10.33333
10.33333
10.33333
10.33333
10.33333
10.33333
10.33333
10.33333
10.33333
10.33333
10.33333
10.33333
10.33333
10.33333
10.33333
10.33333
10.33333
10.33333
10.33333
10.33333
10.33333
10.33333
10.33333
10.33333
10.33333
10.33333
10.33333
10.33333
10.33333
10.33333
10.33333
10.33333
10.33333
10.33333
10.33333
10.33333
10.33333
10.33333
10.33333
10.33333
10.33333
10.33333
10.33333
10.33333
10.33333
10.33333
10.33333
10.33333
10.33333
10.33333
10.33333
10.33333
10.33333
10.33333
10.33333
10.33333
10.33333
10.33333
10.33333
10.33333
10.33333
10.33333
10.33333
10.33333
10.33333
10.33333
10.33333
10.33333
10.33333
10.33333
10.33333
10.33333
10.33333
10.33333
10.33333
10.33333
10.33333
10.33333
10.33333
10.33333
10.33333
10.33333
10.33333
10.33333
10.33333
10.33333
10.33333
10.33333
10.33333
10.33333
10.33333
10.33333
10.33333
10.33333
10.33333
10.33333
10.33333
10.33333
10.33333
10.33333
10.33333
10.33333
10.33333
10.33333
10.33333
10.33333
10.33333
10.33333
10.33333
10.33333
10.33333
10.33333
10.33333
10.33333
10.33333
10.33333
10.33333
10.33333
10.33333
10.33333
10.33333
10.33333
10.33333
10.33333
10.33333
10.33333
10.33333
10.33333
10.33333
10.33333
10.33333
10.33333
10.33333
10.33333
10.33333
10.33333
10.33333
10.33333
10.33333
10.33333
10.33333
10.33333
10.33333
10.33333
10.33333
10.33333
10.33333
10.33333
10.33333
10.33333
10.33333
10.33333
10.33333
10.33333
10.33333
10.33333
10.33333
10.33333
10.33333
10.33333
10.33333
10.33333
10.33333
10.33333
10.33333
10.33333
10.33333
10.33333
10.33333
10.33333
10.33333
10.33333
10.33333
10.33333
10.33333
10.33333
10.33333
10.33333
10.33333
10.33333
10.33333
10.33333
10.33333
10.33333
10.33333
10.33333
10.33333
10.33333
10.33333
10.33333
10.33333
10.33333
10.33333
10.33333
10.33333
10.33333
10.33333
10.33333
10.33333
10.33333
10.33333
10.33333
10.33333
10.33333
10.33333
10.33333
10.33333
10.33333
10.33333
10.33333
10.33333
10.33333
10.33333
10.33333
10.33333
10.33333
10.33333
10.33333
10.33333
10.33333
10.33333
10.33333
10.33333
10.33333
10.33333
10.33333
10.33333
10.33333
10.33333
10.33333
10.33333
10.33333
10.33333
10.33333
10.33333
10.33333
10.33333
10.33333
10.33333
10.33333
10.33333
10.33333
10.33333
10.33333
10.33333
10.33333
10.33333
10.33333
10.33333
10.33333
10.33333
10.33333
10.33333
10.33333
10.33333
10.33333
10.33333
10.33333
10.33333
10.33333
10.33333
10.33333
10.33333
10.33333
10.33333
10.33333
10.33333
10.33333
10.33333
10.33333
10.33333
10.33333
10.33333
10.33333
10.33333
10.33333
10.33333
10.33333
10.33333
10.33333
10.33333
10.33333
10.33333
10.33333
10.33333
10.33333
10.33333
10.33333
10.33333
10.33333
10.33333
10.33333
10.33333
10.33333
10.33333
10.33333
10.33333
10.33333
10.33333
10.33333
10.33333
10.33333
10.33333
10.33333
10.33333
10.33333
10.33333
10.33333
10.33333
10.33333
10.33333
10.33333
10.33333
10.33333
10.33333
10.33333
10.33333
10.33333
10.33333
10.33333
10.33333
10.33333
10.33333
10.33333
10.33333
10.33333
10.33333
10.33333
10.33333
10.33333
10.33333
10.33333
10.33333
10.33333
10.33333
10.33333
10.33333
10.33333
10.33333
10.33333
10.33333
10.33333
10.33333
10.33333
10.33333
10.33333
10.33333
10.33333
10.33333
10.33333
10.33333
10.33333
10.33333
10.33333
10.33333
10.33333
10.33333
10.33333
10.33333
10.33333
10.33333
10.33333
10.33333
10.33333
10.33333
10.33333
10.33333
10.33333
10.33333
10.33333
10.33333
10.33333
10.33333
10.33333
10.33333
10.33333
10.33333
10.33333
10.33333
10.33333
10.33333
10.33333
10.33333
10.33333
10.33333
10.33333
10.33333
10.33333
10.33333
10.33333
10.33333
10.33333
10.33333
10.33333
10.33333
10.33333
10.33333
10.33333
10.33333
10.33333
10.33333
10.33333
10.33333
10.33333
10.33333
10.33333
10.33333
10.33333
10.33333
10.33333
10.33333
10.33333
10.33333
10.33333
10.33333
10.33333
10.33333
10.33333
10.33333
10.33333
10.33333
10.33333
10.33333
10.33333
10.33333
10.33333
10.33333
10.33333
10.33333
10.33333
10.33333
10.33333
10.33333
10.33333
10.33333
10.33333
10.33333
10.33333
10.33333
10.33333
10.33333
10.33333
10.33333
10.33333
10.33333
10.33333
10.33333
10.33333
10.33333
10.33333
10.33333
10.33333
10.33333
10.33333
10.33333
10.33333
10.33333
10.33333
10.33333
10.33333
10.33333
10.33333
10.33333
10.33333
10.33333
10.33333
10.33333
10.33333
10.33333
10.33333
10.33333
10.33333
10.33333
10.33333
10.33333
10.33333
10.33333
10.33333
10.33333
10.33333
10.33333
10.33333
10.33333
10.33333
10.33333
10.33333
10.33332999
10.33332999
10.33332999
10.33332998
10.33332998
10.33332996
10.33332995
10.33332993
10.3333299
10.33332986
10.3333298
10.33332972
10.33332961
10.33332946
10.33332926
10.33332898
10.33332859
10.33332808
10.33332738
10.33332645
10.33332519
10.33332353
10.33332132
10.33331841
10.33331458
10.33330957
10.33330306
10.33329461
10.33328372
10.33326975
10.33325191
10.33322924
10.33320059
10.33316456
10.33311948
10.33306341
10.33299403
10.33290866
10.33280422
10.33267718
10.33252356
10.33233889
10.33211826
10.33185626
10.33154707
10.33118447
10.33076192
10.33027265
10.32970974
10.32906624
10.32833531
10.32751036
10.32658517
10.32555404
10.32441189
10.32315442
10.32177814
10.32028049
10.31865981
10.31691543
10.31504758
10.31305738
10.31094679
10.3087185
10.30637582
10.30392264
10.30136326
10.29870231
10.29594466
10.29309532
10.29015934
10.28714179
10.28404763
10.28088172
10.27764874
10.27435319
10.27099935
10.26759129
10.26413283
10.26062757
10.25707887
10.25348986
10.24986348
10.24620243
10.24250923
10.2387862
10.23503551
10.23125915
10.22745895
10.22363662
10.21979373
10.21593173
10.21205196
10.20815567
10.20424399
10.20031799
10.19637865
10.19242688
10.18846352
10.18448935
10.1805051
10.17651143
10.17250898
10.16849833
10.16448002
10.16045455
10.1564224
10.152384
10.14833977
10.1442901
10.14023533
10.13617582
10.13211187
10.12804378
10.12397183
10.11989629
10.1158174
10.11173538
10.10765047
10.10356287
10.09947277
10.09538036
10.09128581
10.08718928
10.08309094
10.07899094
10.0748894
10.07078648
10.06668228
10.06257695
10.05847058
10.0543633
10.05025521
10.0461464
10.04203698
10.03792703
10.03381664
10.02970591
10.0255949
10.02148371
10.01737239
10.01326104
10.00914971
10.00503847
10.00092739
9.996816531
9.992705957
9.988595726
9.984485896
9.980376524
9.976267664
9.97215937
9.968051695
9.963944691
9.959838408
9.955732896
9.951628205
9.947524382
9.943421476
9.939319535
9.935218605
9.931118734
9.927019968
9.922922356
9.918825945
9.91473078
9.910636904
9.90654434
9.902453126
9.898363508
9.894276794
9.890195791
9.886116286
9.881988121
9.877579928
9.872563962
9.867918426
9.867534026
9.869030393
9.877591778
9.907633496
9.996882031
10.2330623
10.72339418
11.21975636
11.34973612
11.35287247
11.35209012
11.3515641
11.35196722
11.35338987
11.35581615
11.35844888
11.36072989
11.36224378
11.3629066
11.36291461
11.36266322
11.36237773
11.36236355
11.36266073
11.36336674
11.36425449
11.36506337
11.36565387
11.36574771
11.36566899
11.36538464
11.3650287
11.36481544
11.36476002
11.36471532
11.36474074
11.36480808
11.36480185
11.36471421
11.3644877
11.36412518
11.36366495
11.36317174
11.36270329
11.36227775
11.36187558
11.36145865
11.36098991
11.3604469
11.35982618
11.35913971
11.35840742
11.3576493
11.35688046
11.35610862
11.35533399
11.35455085
11.35374993
11.35292134
11.35205756
11.35115546
11.35021686
11.34924744
11.34825462
11.34724504
11.34622262
11.34518771
11.34413762
11.34306793
11.3419743
11.34085399
11.33970657
11.3385338
11.3373388
11.33612493
11.33489472
11.3336493
11.33238836
11.33111062
11.32981448
11.32849872
11.32716298
11.32580783
11.32443453
11.32304463
11.3216395
11.32021998
11.31878623
11.31733791
11.31587431
11.31439479
11.31289894
11.31138681
11.30985882
11.30831569
11.30675823
11.3051871
11.30360276
11.30200536
11.30039488
11.29877114
11.29713398
11.29548334
11.29381927
11.29214197
11.29045166
11.28874859
11.28703297
11.28530492
11.28356451
11.28181179
11.28004683
11.27826977
11.27648081
11.27468021
11.27286829
11.27104534
11.26921163
11.26736735
11.26551264
11.26364754
11.26177207
11.25988621
11.25798995
11.25608328
11.25416622
11.2522388
11.25030108
11.24835312
11.24639499
11.24442679
11.24244863
11.24046067
11.23846307
11.23645604
11.2344398
11.2324146
11.23038066
11.22833817
11.22628731
11.2242282
11.22216093
11.22008554
11.21800204
11.21591044
11.21381069
11.21170279
11.20958669
11.20746239
11.20532989
11.2031892
11.20104036
11.19888342
11.19671847
11.19454559
11.1923649
11.19017651
11.18798055
11.18577714
11.1835664
11.18134845
11.1791234
11.17689135
11.17465238
11.17240658
11.17015401
11.16789475
11.16562883
11.16335629
11.16107717
11.15879148
11.15649922
11.1542004
11.15189503
11.14958311
11.14726464
11.14493967
11.14260823
11.1402704
11.13792625
11.13557588
11.13321943
11.13085703
11.12848881
11.12611492
11.12373548
11.12135061
11.11896042
11.11656496
11.11416427
11.11175838
11.10934727
11.10693089
11.1045092
11.10208214
11.09964963
11.09721163
11.09476811
11.09231904
11.08986445
11.08740438
11.0849389
11.08246811
11.07999214
11.07751112
11.07502519
11.0725345
11.07003918
11.06753934
11.06503509
11.0625265
11.06001361
11.05749644
11.05497498
11.05244922
11.04991911
11.04738461
11.04484568
11.04230227
11.03975435
11.03720191
11.03464495
11.03208349
11.02951756
11.02694722
11.02437254
11.0217936
11.01921047
11.01662325
11.01403201
11.01143683
11.00883776
11.00623485
11.00362814
11.00101764
10.99840335
10.99578526
10.99316335
10.99053761
10.98790799
10.98527448
10.98263706
10.97999572
10.97735045
10.97470128
10.97204823
10.96939136
10.96673071
10.96406636
10.96139839
10.95872688
10.95605193
10.95337362
10.95069204
10.94800726
10.94531934
10.94262834
10.9399343
10.93723724
10.93453717
10.93183409
10.92912798
10.92641884
10.92370664
10.92099135
10.91827295
10.91555144
10.9128268
10.91009903
10.90736816
10.9046342
10.90189719
10.89915718
10.89641422
10.89366838
10.89091972
10.88816831
10.8854142
10.88265746
10.87989814
10.87713628
10.87437192
10.87160508
10.86883578
10.86606402
10.8632898
10.86051311
10.85773394
10.85495227
10.85216808
10.84938138
10.84659215
10.84380039
10.8410061
10.83820931
10.83541004
10.8326083
10.82980414
10.8269976
10.82418872
10.82137755
10.81856411
10.81574847
10.81293064
10.81011067
10.80728858
10.80446439
10.80163812
10.79880976
10.79597932
10.79314681
10.79031222
10.78747554
10.78463678
10.78179593
10.77895299
10.77610798
10.7732609
10.77041178
10.76756063
10.76470749
10.76185238
10.75899535
10.75613644
10.75327567
10.75041309
10.74754873
10.74468263
10.74181482
10.73894531
10.73607414
10.73320131
10.73032683
10.72745071
10.72457295
10.72169355
10.71881252
10.71592984
10.71304552
10.71015957
10.70727199
10.70438278
10.70149196
10.69859956
10.69570558
10.69281005
10.689913
10.68701447
10.68411447
10.68121303
10.6783102
10.67540599
10.67250043
10.66959354
10.66668535
10.66377586
10.66086509
10.65795305
10.65503975
10.65212518
10.64920936
10.64629229
10.64337397
10.64045441
10.63753361
10.63461159
10.63168834
10.62876389
10.62583825
10.62291143
10.61998346
10.61705436
10.61412415
10.61119284
10.60826047
10.60532704
10.60239259
10.59945712
10.59652065
10.5935832
10.59064477
10.58770538
10.58476503
10.58182374
10.5788815
10.57593833
10.57299423
10.57004922
10.56710329
10.56415645
10.56120874
10.55826014
10.5553107
10.55236041
10.5494093
10.54645739
10.5435047
10.54055125
10.53759706
10.53464216
10.53168656
10.52873027
10.52577333
10.52281573
10.5198575
10.51689864
10.51393917
10.5109791
10.50801842
10.50505716
10.50209532
10.4991329
10.49616992
10.49320638
10.49024229
10.48727767
10.48431253
10.48134688
10.47838073
10.47541411
10.47244702
10.46947949
10.46651153
10.46354315
10.46057438
10.45760523
10.4546357
10.45166583
10.44869561
10.44572507
10.4427542
10.43978303
10.43681156
10.43383981
10.43086777
10.42789547
10.42492291
10.4219501
10.41897705
10.41600378
10.41303029
10.41005661
10.40708274
10.40410871
10.40113452
10.3981602
10.39518575
10.39221121
10.38923657
10.38626187
10.38328711
10.38031232
10.3773375
10.37436268
10.37138787
10.36841308
10.36543833
10.36246364
10.35948901
10.35651447
10.35354003
10.3505657
10.34759149
10.34461743
10.34164353
10.33866979
10.33569624
10.33272288
10.32974973
10.3267768
10.3238041
10.32083163
10.31785941
10.31488743
10.31191571
10.30894424
10.30597303
10.30300208
10.30003139
10.29706096
10.29409079
10.29112088
10.28815123
10.28518184
10.28221272
10.27924387
10.2762753
10.27330703
10.27033905
10.2673714
10.26440409
10.26143713
10.25847056
10.25550439
10.25253865
10.24957338
10.24660859
10.24364433
10.24068062
10.23771748
10.23475497
10.23179309
10.22883189
10.22587138
10.22291161
10.21995258
10.21699433
10.21403687
10.21108023
10.20812442
10.20516946
10.20221536
10.19926214
10.19630981
10.19335837
10.19040785
10.18745823
10.18450954
10.18156178
10.17861495
10.17566906
10.17272412
10.16978012
10.16683708
10.16389499
10.16095387
10.15801372
10.15507454
10.15213635
10.14919915
10.14626294
10.14332775
10.14039357
10.13746043
10.13452833
10.13159729
10.12866733
10.12573846
10.12281069
10.11988406
10.11695857
10.11403425
10.11111112
10.1081892
10.10526851
10.10234908
10.09943093
10.09651408
10.09359855
10.09068437
10.08777156
10.08486015
10.08195014
10.07904158
10.07613447
10.07322884
10.0703247
10.06742209
10.06452101
10.06162149
10.05872355
10.05582721
10.05293248
10.05003939
10.04714795
10.04425818
10.04137011
10.03848374
10.0355991
10.03271621
10.02983509
10.02695575
10.02407822
10.0212025
10.01832864
10.01545663
10.0125865
10.00971828
10.00685197
10.00398761
10.00112521
9.998264798
9.995406387
9.992550002
9.989695665
9.986843399
9.983993226
9.98114517
9.978299253
9.975455499
9.972613932
9.969774575
9.966937454
9.964102592
9.961270013
9.958439742
9.955611804
9.952786222
9.949963022
9.947142227
9.944323863
9.941507954
9.938694525
9.935883601
9.933075207
9.93026937
9.927466114
9.924665466
9.921867453
9.919072102
9.916279441
9.913489498
9.910702303
9.907917884
9.905136273
9.902357499
9.899581594
9.89680859
9.89403852
9.891271415
9.88850731
9.885746237
9.88298823
9.880233323
9.877481551
9.874732947
9.871987546
9.869245383
9.866506492
9.863770908
9.861038665
9.8583098
9.855584346
9.852862339
9.850143816
9.847428811
9.844717361
9.842009503
9.839305274
9.836604711
9.833907852
9.831214736
9.828525401
9.825839888
9.823158237
9.820480489
9.817806684
9.815136867
9.812471078
9.809809362
9.807151764
9.804498327
9.801849097
9.79920412
9.796563444
9.793927115
9.791295182
9.788667693
9.786044699
9.783426248
9.780812393
9.778203185
9.775598676
9.77299892
9.77040397
9.767813882
9.765228712
9.762648514
9.760073348
9.757503271
9.754938342
9.752378621
9.749824169
9.747275047
9.744731319
9.742193046
9.739660294
9.737133128
9.734611613
9.732095817
9.729585808
9.727081654
9.724583426
9.722091195
9.719605032
9.71712501
9.714651204
9.71218369
9.709722543
9.707267843
9.704819667
9.702378097
9.699943215
9.697515106
9.695093853
9.692679544
9.690272269
9.687872117
9.685479181
9.683093555
9.680715337
9.678344623
9.675981516
9.673626117
9.671278532
9.668938868
9.666607234
9.664283743
9.661968507
9.659661645
9.657363274
9.655073516
9.652792494
9.650520336
9.648257169
9.646003125
9.643758337
9.641522942
9.639297079
9.637080889
9.634874517
9.632678111
9.63049182
9.628315799
9.626150204
9.623995195
9.621850936
9.619717594
9.61759534
9.615484349
9.613384802
9.611296881
9.609220774
9.607156675
9.605104782
9.603065296
9.601038428
9.599024389
9.5970234
9.595035686
9.593061477
9.591101013
9.589154535
9.587222295
9.585304552
9.583401568
9.581513617
9.579640979
9.577783941
9.575942799
9.574117858
9.572309433
9.570517845
9.568743427
9.566986522
9.565247483
9.563526673
9.561824467
9.560141252
9.558477426
9.556833402
9.555209602
9.553606466
9.552024447
9.550464011
9.548925642
9.547409839
9.545917119
9.544448015
9.543003081
9.541582889
9.540188032
9.538819123
9.537476801
9.536161725
9.534874582
9.533616085
9.532386974
9.531188022
9.530020032
9.528883843
9.527780332
9.526710415
9.525675053
9.524675253
9.523712072
9.522786615
9.521900043
9.521053562
9.520248424
9.519485918
9.518767356
9.518094076
9.517467474
9.516889124
9.516361451
9.515889842
9.515489518
9.515202298
9.515071146
9.515053807
9.515055239
9.515066082
9.515101627
9.515177757
9.515309228
9.51550881
9.515786821
9.516152193
9.516612951
9.517176557
9.517850114
9.518640723
9.519559674
9.520644996
9.52204175
9.524213079
9.528526894
9.539016008
9.567571777
9.648193104
9.868526102
10.37184304
11.0010494
11.21146128
11.22862859
11.23342106
11.23903574
11.24654168
11.25396826
11.25987792
11.2648644
11.26982801
11.2749824
11.28000988
11.28464591
11.28894386
11.29306994
11.29708786
11.30095746
11.3046351
11.30812922
11.31147315
11.31468553
11.31776559
11.32070976
11.32352276
11.32621396
11.32879044
11.33125559
11.33361177
11.3358625
11.33801204
11.34006416
11.34202189
11.34388796
11.34566518
11.34735642
11.34896434
11.35049142
11.35193997
11.3533122
11.35461025
11.35583611
11.35699167
11.35807873
11.35909904
11.3600543
11.36094617
11.36177631
11.36254638
11.36325812
11.36391333
11.36451405
11.36506255
11.36556146
11.36601309
11.36641794
11.36676719
11.3670271
11.36716013
11.36721041
11.36720848
11.36720033
11.3671879
11.36716979
11.36714052
11.36709301
11.36701974
11.36691362
11.36676882
11.36658138
11.36634927
11.36607202
11.36575009
11.36538437
11.36497578
11.36452541
11.36403455
11.36350484
11.36293808
11.36233613
11.3617007
11.36103332
11.36033539
11.35960821
11.35885299
11.35807083
11.35726254
11.35642863
11.35556929
11.35468438
11.35377362
11.3528366
11.35187296
11.35088239
11.34986473
11.34881995
11.3477482
11.34664978
11.34552511
11.34437474
11.34319928
11.34199936
11.34077561
11.33952862
11.33825888
11.33696686
11.33565292
11.3343174
11.33296056
11.33158265
11.33018391
11.32876456
11.32732482
11.3258649
11.32438504
11.32288543
11.3213663
11.31982784
11.31827025
11.31669371
11.31509842
11.31348454
11.31185227
11.3102018
11.30853331
11.30684701
11.3051431
11.30342178
11.30168326
11.29992775
11.29815545
11.29636657
11.29456131
11.29273986
11.29090243
11.28904922
11.28718043
11.28529626
11.2833969
11.28148255
11.2795534