/*--------------------------------*- C++ -*----------------------------------*\
| =========                 |                                                 |
| \\      /  F ield         | OpenFOAM: The Open Source CFD Toolbox           |
|  \\    /   O peration     | Version:  v1812                                 |
|   \\  /    A nd           | Web:      www.OpenFOAM.com                      |
|    \\/     M anipulation  |                                                 |
\*---------------------------------------------------------------------------*/
FoamFile
{
    version     2.0;
    format      ascii;
    class       surfaceScalarField;
    location    "1.8";
    object      phi;
}
// * * * * * * * * * * * * * * * * * * * * * * * * * * * * * * * * * * * * * //

dimensions      [1 0 -1 0 0 0 0];
oriented        oriented;


internalField   nonuniform List<scalar> 
7999
(
40.56737259
40.56737259
40.56737259
40.56737259
40.56737259
40.56737259
40.56737259
40.56737259
40.56737259
40.56737259
40.56737259
40.56737259
40.56737259
40.56737259
40.56737259
40.56737259
40.56737259
40.56737259
40.56737259
40.56737259
40.56737259
40.56737259
40.56737259
40.56737259
40.56737259
40.56737259
40.56737259
40.56737259
40.56737259
40.56737259
40.56737259
40.56737259
40.56737259
40.56737259
40.56737259
40.56737259
40.56737259
40.56737259
40.56737259
40.56737259
40.56737259
40.56737259
40.56737259
40.56737259
40.56737259
40.56737259
40.56737259
40.56737259
40.56737259
40.56737259
40.56737259
40.56737259
40.56737259
40.56737259
40.56737259
40.56737259
40.56737259
40.56737259
40.56737259
40.56737259
40.56737259
40.56737259
40.56737259
40.56737259
40.56737259
40.56737259
40.56737259
40.56737259
40.56737259
40.56737259
40.56737259
40.56737259
40.56737259
40.56737259
40.56737259
40.56737259
40.56737259
40.56737259
40.56737259
40.56737259
40.56737259
40.56737259
40.56737259
40.56737259
40.56737259
40.56737259
40.56737259
40.56737259
40.56737259
40.56737259
40.56737259
40.56737259
40.56737259
40.56737259
40.56737259
40.56737259
40.56737259
40.56737259
40.56737259
40.56737259
40.56737259
40.56737259
40.56737259
40.56737259
40.56737259
40.56737259
40.56737259
40.56737259
40.56737259
40.56737259
40.56737259
40.56737259
40.56737259
40.56737259
40.56737259
40.56737259
40.56737259
40.56737259
40.56737259
40.56737259
40.56737259
40.56737259
40.56737259
40.56737259
40.56737259
40.56737259
40.56737259
40.56737259
40.56737259
40.56737259
40.56737259
40.56737259
40.56737259
40.56737259
40.56737259
40.56737259
40.56737259
40.56737259
40.56737259
40.56737259
40.56737259
40.56737259
40.56737259
40.56737259
40.56737259
40.56737259
40.56737259
40.56737259
40.56737259
40.56737259
40.56737259
40.56737259
40.56737259
40.56737259
40.56737259
40.56737259
40.56737259
40.56737259
40.56737259
40.56737259
40.56737259
40.56737259
40.56737259
40.56737259
40.56737259
40.56737259
40.56737259
40.56737259
40.56737259
40.56737259
40.56737259
40.56737259
40.56737259
40.56737259
40.56737259
40.56737259
40.56737259
40.56737259
40.56737259
40.56737259
40.56737259
40.56737259
40.56737259
40.56737259
40.56737259
40.56737259
40.56737259
40.56737259
40.56737259
40.56737259
40.56737259
40.56737259
40.56737259
40.56737259
40.56737259
40.56737259
40.56737259
40.56737259
40.56737259
40.56737259
40.56737259
40.56737259
40.56737259
40.56737259
40.56737259
40.56737259
40.56737259
40.56737259
40.56737259
40.56737259
40.56737259
40.56737259
40.56737259
40.56737259
40.56737259
40.56737259
40.56737259
40.56737259
40.56737259
40.56737259
40.56737259
40.56737259
40.56737259
40.56737259
40.56737259
40.56737259
40.56737259
40.56737259
40.56737259
40.56737259
40.56737259
40.56737259
40.56737259
40.56737259
40.56737259
40.56737259
40.56737259
40.56737259
40.56737259
40.56737259
40.56737259
40.56737259
40.56737259
40.56737259
40.56737259
40.56737259
40.56737259
40.56737259
40.56737259
40.56737259
40.56737259
40.56737259
40.56737259
40.56737259
40.56737259
40.56737259
40.56737259
40.56737259
40.56737259
40.56737259
40.56737259
40.56737259
40.56737259
40.56737259
40.56737259
40.56737259
40.56737259
40.56737259
40.56737259
40.56737259
40.56737259
40.56737259
40.56737259
40.56737259
40.56737259
40.56737259
40.56737259
40.56737259
40.56737259
40.56737259
40.56737259
40.56737259
40.56737259
40.56737259
40.56737259
40.56737259
40.56737259
40.56737259
40.56737259
40.56737259
40.56737259
40.56737259
40.56737259
40.56737259
40.56737259
40.56737259
40.56737259
40.56737259
40.56737259
40.56737259
40.56737259
40.56737259
40.56737259
40.56737259
40.56737259
40.56737259
40.56737259
40.56737259
40.56737259
40.56737259
40.56737259
40.56737259
40.56737259
40.56737259
40.56737259
40.56737259
40.56737259
40.56737259
40.56737259
40.56737259
40.56737259
40.56737259
40.56737259
40.56737259
40.56737259
40.56737259
40.56737259
40.56737259
40.56737259
40.56737259
40.56737259
40.56737259
40.56737259
40.56737259
40.56737259
40.56737259
40.56737259
40.56737259
40.56737259
40.56737259
40.56737259
40.56737259
40.56737259
40.56737259
40.56737259
40.56737259
40.56737259
40.56737259
40.56737259
40.56737259
40.56737259
40.56737259
40.56737259
40.56737259
40.56737259
40.56737259
40.56737259
40.56737259
40.56737259
40.56737259
40.56737259
40.56737259
40.56737259
40.56737259
40.56737259
40.56737259
40.56737259
40.56737259
40.56737259
40.56737259
40.56737259
40.56737259
40.56737259
40.56737259
40.56737259
40.56737259
40.56737259
40.56737259
40.56737259
40.56737259
40.56737259
40.56737259
40.56737259
40.56737259
40.56737259
40.56737259
40.56737259
40.56737259
40.56737259
40.56737259
40.56737259
40.56737259
40.56737259
40.56737259
40.56737259
40.56737259
40.56737259
40.56737259
40.56737259
40.56737259
40.56737259
40.56737259
40.56737259
40.56737259
40.56737259
40.56737259
40.56737259
40.56737259
40.56737259
40.56737259
40.56737259
40.56737259
40.56737259
40.56737259
40.56737259
40.56737259
40.56737259
40.56737259
40.56737259
40.56737259
40.56737259
40.56737259
40.56737259
40.56737259
40.56737259
40.56737259
40.56737259
40.56737259
40.56737259
40.56737259
40.56737259
40.56737259
40.56737259
40.56737259
40.56737259
40.56737259
40.56737259
40.56737259
40.56737259
40.56737259
40.56737259
40.56737259
40.56737259
40.56737259
40.56737259
40.56737259
40.56737259
40.56737259
40.56737259
40.56737259
40.56737259
40.56737259
40.56737259
40.56737259
40.56737259
40.56737259
40.56737259
40.56737259
40.56737259
40.56737259
40.56737259
40.56737259
40.56737259
40.56737259
40.56737259
40.56737259
40.56737259
40.56737259
40.56737259
40.56737259
40.56737259
40.56737259
40.56737259
40.56737259
40.56737259
40.56737259
40.56737259
40.56737259
40.56737259
40.56737259
40.56737259
40.56737259
40.56737259
40.56737259
40.56737259
40.56737259
40.56737259
40.56737259
40.56737259
40.56737259
40.56737259
40.56737259
40.56737259
40.56737259
40.56737259
40.56737259
40.56737259
40.56737259
40.56737259
40.56737259
40.56737259
40.56737259
40.56737259
40.56737259
40.56737259
40.56737259
40.56737259
40.56737259
40.56737259
40.56737259
40.56737259
40.56737259
40.56737259
40.56737259
40.56737259
40.56737259
40.56737259
40.56737259
40.56737259
40.56737259
40.56737259
40.56737259
40.56737259
40.56737259
40.56737259
40.56737259
40.56737259
40.56737259
40.56737259
40.56737259
40.56737259
40.56737259
40.56737259
40.56737259
40.56737259
40.56737259
40.56737259
40.56737259
40.56737259
40.56737259
40.56737259
40.56737259
40.56737259
40.56737259
40.56737259
40.56737259
40.56737259
40.56737259
40.56737259
40.56737259
40.56737259
40.56737259
40.56737259
40.56737259
40.56737259
40.56737259
40.56737259
40.56737259
40.56737259
40.56737259
40.56737259
40.56737259
40.56737259
40.56737259
40.56737259
40.56737259
40.56737259
40.56737259
40.56737259
40.56737259
40.56737259
40.56737259
40.56737259
40.56737259
40.56737259
40.56737259
40.56737259
40.56737259
40.56737259
40.56737259
40.56737259
40.56737259
40.56737259
40.56737259
40.56737259
40.56737259
40.56737259
40.56737259
40.56737259
40.56737259
40.56737259
40.56737259
40.56737259
40.56737259
40.56737259
40.56737259
40.56737259
40.56737259
40.56737259
40.56737259
40.56737259
40.56737259
40.56737259
40.56737259
40.56737259
40.56737259
40.56737259
40.56737259
40.56737259
40.56737259
40.56737259
40.56737259
40.56737259
40.56737259
40.56737259
40.56737259
40.56737259
40.56737259
40.56737259
40.56737259
40.56737259
40.56737259
40.56737259
40.56737259
40.56737259
40.56737259
40.56737259
40.56737259
40.56737259
40.56737259
40.56737259
40.56737259
40.56737259
40.56737259
40.56737259
40.56737259
40.56737259
40.56737259
40.56737259
40.56737259
40.56737259
40.56737259
40.56737259
40.56737259
40.56737259
40.56737259
40.56737259
40.56737259
40.56737259
40.56737259
40.56737259
40.56737259
40.56737259
40.56737259
40.56737259
40.56737259
40.56737259
40.56737259
40.56737259
40.56737259
40.56737259
40.56737259
40.56737259
40.56737259
40.56737259
40.56737259
40.56737259
40.56737259
40.56737259
40.56737259
40.56737259
40.56737259
40.56737259
40.56737259
40.56737259
40.56737259
40.56737259
40.56737259
40.56737259
40.56737259
40.56737259
40.56737259
40.56737259
40.56737259
40.56737259
40.56737259
40.56737259
40.56737259
40.56737259
40.56737259
40.56737259
40.56737259
40.56737259
40.56737259
40.56737259
40.56737259
40.56737259
40.56737259
40.56737259
40.56737259
40.56737259
40.56737259
40.56737259
40.56737259
40.56737259
40.56737259
40.56737259
40.56737259
40.56737259
40.56737259
40.56737259
40.56737259
40.56737259
40.56737259
40.56737259
40.56737259
40.56737259
40.56737259
40.56737259
40.56737259
40.56737259
40.56737259
40.56737259
40.56737259
40.56737259
40.56737259
40.56737259
40.56737259
40.56737259
40.56737259
40.56737259
40.56737259
40.56737259
40.56737259
40.56737259
40.56737259
40.56737259
40.56737259
40.56737259
40.56737259
40.56737259
40.56737259
40.56737259
40.56737259
40.56737259
40.56737259
40.56737259
40.56737259
40.56737259
40.56737259
40.56737259
40.56737259
40.56737259
40.56737259
40.56737259
40.56737259
40.56737259
40.56737259
40.56737259
40.56737259
40.56737259
40.56737259
40.56737259
40.56737259
40.56737259
40.56737259
40.56737259
40.56737259
40.56737259
40.56737259
40.56737259
40.56737259
40.56737259
40.56737259
40.56737259
40.56737259
40.56737259
40.56737259
40.56737259
40.56737259
40.56737259
40.56737259
40.56737259
40.56737259
40.56737259
40.56737259
40.56737259
40.56737259
40.56737259
40.56737259
40.56737259
40.56737259
40.56737259
40.56737259
40.56737259
40.56737259
40.56737259
40.56737259
40.56737259
40.56737259
40.56737259
40.56737259
40.56737259
40.56737259
40.56737259
40.56737259
40.56737259
40.56737259
40.56737259
40.56737259
40.56737259
40.56737259
40.56737259
40.56737259
40.56737259
40.56737259
40.56737259
40.56737259
40.56737259
40.56737259
40.56737259
40.56737259
40.56737259
40.56737259
40.56737259
40.56737259
40.56737259
40.56737259
40.56737259
40.56737259
40.56737259
40.56737259
40.56737259
40.56737259
40.56737259
40.56737259
40.56737259
40.56737259
40.56737259
40.56737259
40.56737259
40.56737259
40.56737259
40.56737259
40.56737259
40.56737259
40.56737259
40.56737259
40.56737259
40.56737259
40.56737259
40.56737259
40.56737259
40.56737259
40.56737259
40.56737259
40.56737259
40.56737259
40.56737259
40.56737259
40.56737259
40.56737259
40.56737259
40.56737259
40.56737259
40.56737259
40.56737259
40.56737259
40.56737259
40.56737259
40.56737259
40.56737259
40.56737259
40.56737259
40.56737259
40.56737259
40.56737259
40.56737259
40.56737259
40.56737259
40.56737259
40.56737259
40.56737259
40.56737259
40.56737259
40.56737259
40.56737259
40.56737259
40.56737259
40.56737259
40.56737259
40.56737259
40.56737259
40.56737259
40.56737259
40.56737259
40.56737259
40.56737259
40.56737259
40.56737259
40.56737259
40.56737259
40.56737259
40.56737259
40.56737259
40.56737259
40.56737259
40.56737259
40.56737259
40.56737259
40.56737259
40.56737259
40.56737259
40.56737259
40.56737259
40.56737259
40.56737259
40.56737259
40.56737259
40.56737259
40.56737259
40.56737259
40.56737259
40.56737259
40.56737259
40.56737259
40.56737259
40.56737259
40.56737259
40.56737259
40.56737259
40.56737259
40.56737259
40.56737259
40.56737259
40.56737259
40.56737259
40.56737259
40.56737259
40.56737259
40.56737259
40.56737259
40.56737259
40.56737259
40.56737259
40.56737259
40.56737259
40.56737259
40.56737259
40.56737259
40.56737259
40.56737259
40.56737259
40.56737259
40.56737259
40.56737259
40.56737259
40.56737259
40.56737259
40.56737259
40.56737259
40.56737259
40.56737259
40.56737259
40.56737259
40.56737259
40.56737259
40.56737259
40.56737259
40.56737259
40.56737259
40.56737259
40.56737259
40.56737259
40.56737259
40.56737259
40.56737259
40.56737259
40.56737259
40.56737259
40.56737259
40.56737259
40.56737259
40.56737259
40.56737259
40.56737259
40.56737259
40.56737259
40.56737259
40.56737259
40.56737259
40.56737259
40.56737259
40.56737259
40.56737259
40.56737259
40.56737259
40.56737259
40.56737259
40.56737259
40.56737259
40.56737259
40.56737259
40.56737259
40.56737259
40.56737259
40.56737259
40.56737259
40.56737259
40.56737259
40.56737259
40.56737259
40.56737259
40.56737259
40.56737259
40.56737259
40.56737259
40.56737259
40.56737259
40.56737259
40.56737259
40.56737259
40.56737259
40.56737259
40.56737259
40.56737259
40.56737259
40.56737259
40.56737259
40.56737259
40.56737259
40.56737259
40.56737259
40.56737259
40.56737259
40.56737259
40.56737259
40.56737259
40.56737259
40.56737259
40.56737259
40.56737259
40.56737259
40.56737259
40.56737259
40.56737259
40.56737259
40.56737259
40.56737259
40.56737259
40.56737259
40.56737259
40.56737259
40.56737259
40.56737259
40.56737259
40.56737259
40.56737259
40.56737259
40.56737259
40.56737259
40.56737259
40.56737259
40.56737259
40.56737259
40.56737259
40.56737259
40.56737259
40.56737259
40.56737259
40.56737259
40.56737259
40.56737259
40.56737259
40.56737259
40.56737259
40.56737259
40.56737259
40.56737259
40.56737259
40.56737259
40.56737259
40.56737259
40.56737259
40.56737259
40.56737259
40.56737259
40.56737259
40.56737259
40.56737259
40.56737259
40.56737259
40.56737259
40.56737259
40.56737259
40.56737259
40.56737259
40.56737259
40.56737259
40.56737259
40.56737259
40.56737259
40.56737259
40.56737259
40.56737259
40.56737259
40.56737259
40.56737259
40.56737259
40.56737259
40.56737259
40.56737259
40.56737259
40.56737259
40.56737259
40.56737259
40.56737259
40.56737259
40.56737259
40.56737259
40.56737259
40.56737259
40.56737259
40.56737259
40.56737259
40.56737259
40.56737259
40.56737259
40.56737259
40.56737259
40.56737259
40.56737259
40.56737259
40.56737259
40.56737259
40.56737259
40.56737259
40.56737259
40.56737259
40.56737259
40.56737259
40.56737259
40.56737259
40.56737259
40.56737259
40.56737259
40.56737259
40.56737259
40.56737259
40.56737259
40.56737259
40.56737259
40.56737259
40.56737259
40.56737259
40.56737259
40.56737259
40.56737259
40.56737259
40.56737259
40.56737259
40.56737259
40.56737259
40.56737259
40.56737259
40.56737259
40.56737259
40.56737259
40.56737259
40.56737259
40.56737259
40.56737259
40.56737259
40.56737259
40.56737259
40.56737259
40.56737259
40.56737259
40.56737259
40.56737259
40.56737259
40.56737259
40.56737259
40.56737259
40.56737259
40.56737259
40.56737259
40.56737259
40.56737259
40.56737259
40.56737259
40.56737259
40.56737259
40.56737259
40.56737259
40.56737259
40.56737259
40.56737259
40.56737259
40.56737259
40.56737259
40.56737259
40.56737259
40.56737259
40.56737259
40.56737259
40.56737259
40.56737259
40.56737259
40.56737259
40.56737259
40.56737259
40.56737259
40.56737259
40.56737259
40.56737259
40.56737259
40.56737259
40.56737259
40.56737259
40.56737259
40.56737259
40.56737259
40.56737259
40.56737259
40.56737259
40.56737259
40.56737259
40.56737259
40.56737259
40.56737259
40.56737259
40.56737259
40.56737259
40.56737259
40.56737259
40.56737259
40.56737259
40.56737259
40.56737259
40.56737259
40.56737259
40.56737259
40.56737259
40.56737259
40.56737259
40.56737259
40.56737259
40.56737259
40.56737259
40.56737259
40.56737259
40.56737259
40.56737259
40.56737259
40.56737259
40.56737259
40.56737259
40.56737259
40.56737259
40.56737259
40.56737259
40.56737259
40.56737259
40.56737259
40.56737259
40.56737259
40.56737259
40.56737259
40.56737259
40.56737259
40.56737259
40.56737259
40.56737259
40.56737259
40.56737259
40.56737259
40.56737259
40.56737259
40.56737259
40.56737259
40.56737259
40.56737259
40.56737259
40.56737259
40.56737259
40.56737259
40.56737259
40.56737259
40.56737259
40.56737259
40.56737259
40.56737259
40.56737259
40.56737259
40.56737259
40.56737259
40.56737259
40.56737259
40.56737259
40.56737259
40.56737259
40.56737259
40.56737259
40.56737259
40.56737259
40.56737259
40.56737259
40.56737259
40.56737259
40.56737259
40.56737259
40.56737259
40.56737259
40.56737259
40.56737259
40.56737259
40.56737259
40.56737259
40.56737259
40.56737259
40.56737259
40.56737259
40.56737259
40.56737259
40.56737259
40.56737259
40.56737259
40.56737259
40.56737259
40.56737259
40.56737259
40.56737259
40.56737259
40.56737259
40.56737259
40.56737259
40.56737259
40.56737259
40.56737259
40.56737259
40.56737259
40.56737259
40.56737259
40.56737259
40.56737259
40.56737259
40.56737259
40.56737259
40.56737259
40.56737259
40.56737259
40.56737259
40.56737259
40.56737259
40.56737259
40.56737259
40.56737259
40.56737259
40.56737259
40.56737259
40.56737259
40.56737259
40.56737259
40.56737259
40.56737259
40.56737259
40.56737259
40.56737259
40.56737259
40.56737259
40.56737259
40.56737259
40.56737259
40.56737259
40.56737259
40.56737259
40.56737259
40.56737259
40.56737259
40.56737259
40.56737259
40.56737259
40.56737259
40.56737259
40.56737259
40.56737259
40.56737259
40.56737259
40.56737259
40.56737259
40.56737259
40.56737259
40.56737259
40.56737259
40.56737259
40.56737259
40.56737259
40.56737259
40.56737259
40.56737259
40.56737259
40.56737259
40.56737259
40.56737259
40.56737259
40.56737259
40.56737259
40.56737259
40.56737259
40.56737259
40.56737259
40.56737259
40.56737259
40.56737259
40.56737259
40.56737259
40.56737259
40.56737259
40.56737259
40.56737259
40.56737259
40.56737259
40.56737259
40.56737259
40.56737259
40.56737259
40.56737259
40.56737259
40.56737259
40.56737259
40.56737259
40.56737259
40.56737259
40.56737259
40.56737259
40.56737259
40.56737259
40.56737259
40.56737259
40.56737259
40.56737259
40.56737259
40.56737259
40.56737259
40.56737259
40.56737259
40.56737259
40.56737259
40.56737259
40.56737259
40.56737259
40.56737259
40.56737259
40.56737259
40.56737259
40.56737259
40.56737259
40.56737259
40.56737259
40.56737259
40.56737259
40.56737259
40.56737259
40.56737259
40.56737259
40.56737259
40.56737259
40.56737259
40.56737259
40.56737259
40.56737259
40.56737259
40.56737259
40.56737259
40.56737259
40.56737259
40.56737259
40.56737259
40.56737259
40.56737259
40.56737259
40.56737259
40.56737259
40.56737259
40.56737259
40.56737259
40.56737259
40.56737259
40.56737259
40.56737259
40.56737259
40.56737259
40.56737259
40.56737259
40.56737259
40.56737259
40.56737259
40.56737259
40.56737259
40.56737259
40.56737259
40.56737259
40.56737259
40.56737259
40.56737259
40.56737259
40.56737259
40.56737259
40.56737259
40.56737259
40.56737259
40.56737259
40.56737259
40.56737259
40.56737259
40.56737259
40.56737259
40.56737259
40.56737259
40.56737259
40.56737259
40.56737259
40.56737259
40.56737259
40.56737259
40.56737259
40.56737259
40.56737259
40.56737259
40.56737259
40.56737259
40.56737259
40.56737259
40.56737259
40.56737259
40.56737259
40.56737259
40.56737259
40.56737259
40.56737259
40.56737259
40.56737259
40.56737259
40.56737259
40.56737259
40.56737259
40.56737259
40.56737259
40.56737259
40.56737259
40.56737259
40.56737259
40.56737259
40.56737259
40.56737259
40.56737259
40.56737259
40.56737259
40.56737259
40.56737259
40.56737259
40.56737259
40.56737259
40.56737259
40.56737259
40.56737259
40.56737259
40.56737259
40.56737259
40.56737259
40.56737259
40.56737259
40.56737259
40.56737259
40.56737259
40.56737259
40.56737259
40.56737259
40.56737259
40.56737259
40.56737259
40.56737259
40.56737259
40.56737259
40.56737259
40.56737259
40.56737259
40.56737259
40.56737259
40.56737259
40.56737259
40.56737259
40.56737259
40.56737259
40.56737259
40.56737259
40.56737259
40.56737259
40.56737259
40.56737259
40.56737259
40.56737259
40.56737259
40.56737259
40.56737259
40.56737259
40.56737259
40.56737259
40.56737259
40.56737259
40.56737259
40.56737259
40.56737259
40.56737259
40.56737259
40.56737259
40.56737259
40.56737259
40.56737259
40.56737259
40.56737259
40.56737259
40.56737259
40.56737259
40.56737259
40.56737259
40.56737259
40.56737259
40.56737259
40.56737259
40.56737259
40.56737259
40.56737259
40.56737259
40.56737259
40.56737259
40.56737259
40.56737259
40.56737259
40.56737259
40.56737259
40.56737259
40.56737259
40.56737259
40.56737259
40.56737259
40.56737259
40.56737259
40.56737259
40.56737259
40.56737259
40.56737259
40.56737259
40.56737259
40.56737259
40.56737259
40.56737259
40.56737259
40.56737259
40.56737259
40.56737259
40.56737259
40.56737259
40.56737259
40.56737259
40.56737259
40.56737259
40.56737259
40.56737259
40.56737259
40.56737259
40.56737259
40.56737259
40.56737259
40.56737259
40.56737259
40.56737259
40.56737259
40.56737259
40.56737259
40.56737259
40.56737259
40.56737259
40.56737259
40.56737259
40.56737259
40.56737259
40.56737259
40.56737259
40.56737259
40.56737259
40.56737259
40.56737259
40.56737259
40.56737259
40.56737259
40.56737259
40.56737259
40.56737259
40.56737259
40.56737259
40.56737259
40.56737259
40.56737259
40.56737259
40.56737259
40.56737259
40.56737259
40.56737259
40.56737259
40.56737259
40.56737259
40.56737259
40.56737259
40.56737259
40.56737259
40.56737259
40.56737259
40.56737259
40.56737259
40.56737259
40.56737259
40.56737259
40.56737259
40.56737259
40.56737259
40.56737259
40.56737259
40.56737259
40.56737258
40.56737258
40.56737258
40.56737257
40.56737257
40.56737256
40.56737255
40.56737253
40.5673725
40.56737247
40.56737242
40.56737235
40.56737226
40.56737213
40.56737196
40.56737172
40.56737139
40.56737096
40.56737037
40.56736958
40.56736853
40.56736713
40.56736528
40.56736284
40.56735964
40.56735547
40.56735005
40.56734304
40.56733402
40.56732246
40.56730774
40.56728907
40.56726553
40.56723599
40.56719912
40.56715336
40.56709688
40.56702754
40.56694293
40.56684026
40.56671643
40.56656796
40.56639104
40.56618151
40.56593491
40.5656465
40.56531133
40.56492431
40.56448025
40.56397402
40.56340058
40.56275512
40.56203316
40.56123061
40.56034392
40.5593701
40.55830679
40.55715232
40.55590572
40.55456669
40.55313562
40.55161351
40.55000195
40.54830305
40.54651935
40.54465374
40.54270942
40.54068979
40.53859839
40.53643885
40.5342148
40.53192986
40.52958757
40.52719138
40.5247446
40.52225043
40.51971186
40.51713177
40.51451284
40.5118576
40.50916839
40.50644742
40.50369674
40.50091823
40.49811367
40.49528468
40.49243276
40.48955932
40.48666564
40.48375291
40.48082224
40.47787463
40.47491103
40.47193231
40.46893928
40.46593267
40.46291318
40.45988144
40.45683805
40.45378356
40.45071848
40.44764329
40.44455842
40.44146429
40.43836128
40.43524975
40.43213003
40.42900244
40.42586727
40.42272478
40.41957525
40.4164189
40.41325597
40.41008666
40.40691117
40.4037297
40.40054241
40.39734949
40.39415107
40.39094732
40.38773837
40.38452436
40.3813054
40.37808163
40.37485316
40.37162009
40.36838253
40.36514057
40.3618943
40.35864383
40.35538922
40.35213057
40.34886795
40.34560143
40.34233109
40.33905699
40.3357792
40.33249779
40.3292128
40.32592432
40.32263238
40.31933705
40.31603837
40.31273641
40.3094312
40.30612281
40.30281127
40.29949663
40.29617894
40.29285824
40.28953457
40.28620798
40.28287851
40.27954621
40.2762111
40.27287323
40.26953264
40.26618937
40.26284347
40.25949496
40.25614388
40.25279029
40.24943421
40.24607568
40.24271475
40.23935146
40.23598583
40.23261787
40.22924769
40.22587561
40.22250333
40.21913285
40.21575077
40.21228508
40.20847424
40.20409795
40.20215161
40.20197603
40.20398003
40.21465558
40.25028603
40.35200233
40.60477653
41.00852738
41.21530709
41.23218183
41.22255871
41.21271516
41.20633897
41.204309
41.20903461
41.21752349
41.22581576
41.23150876
41.23323604
41.23129986
41.22806725
41.22364923
41.22047489
41.21862522
41.21937665
41.22219148
41.22545113
41.22819891
41.22912133
41.22886805
41.2279488
41.22613991
41.22445886
41.22382268
41.22382887
41.22430761
41.22511436
41.22590876
41.2264885
41.2266003
41.22619383
41.22544541
41.22459924
41.22388178
41.22343964
41.22329955
41.22338073
41.22354086
41.22362802
41.22352705
41.22319161
41.22264986
41.22198365
41.22129386
41.22066695
41.22015177
41.2197518
41.21943241
41.21913614
41.21880329
41.21839007
41.21787981
41.21728388
41.21663391
41.21596885
41.21532173
41.21471055
41.21413567
41.21358251
41.21302848
41.21245105
41.21183451
41.21117393
41.21047517
41.20975205
41.20902129
41.20829743
41.2075891
41.20689738
41.20621637
41.20553537
41.20484207
41.20412577
41.20337996
41.20260358
41.20180092
41.20097995
41.20015006
41.19931959
41.19849391
41.19767434
41.19685811
41.19603911
41.1952095
41.1943616
41.19348975
41.19259167
41.19166883
41.19072595
41.18976976
41.18880739
41.18784482
41.18688571
41.1859308
41.18497804
41.18402337
41.18306193
41.18208941
41.18110314
41.18010264
41.17908959
41.17806718
41.17703918
41.1760089
41.17497833
41.17394783
41.17291612
41.17188087
41.17083949
41.16978997
41.16873141
41.16766431
41.16659029
41.16551153
41.16443005
41.163347
41.16226224
41.16117419
41.1600802
41.1589771
41.15786196
41.15673277
41.15558894
41.15443137
41.15326224
41.15208454
41.15090137
41.14971539
41.14852834
41.14734084
41.14615246
41.14496206
41.14376811
41.1425692
41.14136433
41.14015305
41.13893547
41.13771203
41.1364833
41.13524969
41.13401134
41.13276798
41.13151908
41.130264
41.12900215
41.12773323
41.12645731
41.12517487
41.12388666
41.12259357
41.12129646
41.11999594
41.11869226
41.11738535
41.1160748
41.11476003
41.1134404
41.11211542
41.11078474
41.10944829
41.10810617
41.10675861
41.10540587
41.10404811
41.10268539
41.10131757
41.09994443
41.0985657
41.09718112
41.09579059
41.09439419
41.09299221
41.0915851
41.09017347
41.08875794
41.0873391
41.08591741
41.08449318
41.08306652
41.08163738
41.08020555
41.07877075
41.07733261
41.07589077
41.07444488
41.07299459
41.0715396
41.07007963
41.06861446
41.06714392
41.06566791
41.06418643
41.0626996
41.06120766
41.05971095
41.05820991
41.05670502
41.05519677
41.05368561
41.05217187
41.05065577
41.04913737
41.0476166
41.04609323
41.04456696
41.04303741
41.0415042
41.03996695
41.03842532
41.03687906
41.03532798
41.03377198
41.03221106
41.03064526
41.02907472
41.02749964
41.02592026
41.02433686
41.02274975
41.02115921
41.01956555
41.01796898
41.01636969
41.01476778
41.01316325
41.01155602
41.00994594
41.00833278
41.00671627
41.00509611
41.00347199
41.00184366
41.00021086
40.99857342
40.99693123
40.99528424
40.99363248
40.99197604
40.99031508
40.98864981
40.98698048
40.98530736
40.98363076
40.98195097
40.98026826
40.97858289
40.97689504
40.97520487
40.97351245
40.97181778
40.97012082
40.96842146
40.96671953
40.96501484
40.96330717
40.96159633
40.95988211
40.95816434
40.95644289
40.95471767
40.95298865
40.95125585
40.94951932
40.94777917
40.94603554
40.94428861
40.94253853
40.9407855
40.93902967
40.93727119
40.93551017
40.9337467
40.93198079
40.93021244
40.92844159
40.92666815
40.924892
40.92311301
40.92133103
40.91954591
40.91775752
40.91596574
40.91417049
40.91237172
40.91056942
40.90876359
40.90695431
40.90514166
40.90332574
40.9015067
40.89968466
40.89785977
40.89603217
40.89420196
40.89236924
40.89053408
40.88869652
40.88685655
40.88501415
40.88316927
40.88132182
40.87947171
40.87761885
40.87576311
40.87390441
40.87204266
40.87017779
40.86830975
40.86643854
40.86456416
40.86268665
40.86080606
40.85892249
40.85703603
40.85514677
40.85325484
40.85136033
40.84946333
40.84756393
40.84566219
40.84375814
40.84185181
40.83994318
40.83803223
40.83611892
40.83420319
40.83228498
40.83036423
40.82844087
40.82651484
40.82458611
40.82265464
40.82072043
40.81878347
40.81684379
40.81490143
40.81295645
40.8110089
40.80905886
40.8071064
40.80515158
40.80319449
40.80123516
40.79927365
40.79730998
40.79534419
40.79337625
40.79140618
40.78943393
40.78745949
40.7854828
40.78350384
40.78152255
40.77953891
40.77755287
40.77556442
40.77357356
40.77158026
40.76958456
40.76758646
40.76558601
40.76358323
40.76157817
40.75957089
40.75756141
40.75554979
40.75353606
40.75152024
40.74950236
40.74748241
40.7454604
40.7434363
40.7414101
40.73938176
40.73735123
40.73531848
40.73328344
40.73124607
40.72920632
40.72716414
40.72511949
40.72307233
40.72102263
40.71897037
40.71691553
40.71485811
40.71279809
40.71073548
40.70867028
40.70660251
40.70453219
40.70245932
40.70038393
40.69830603
40.69622564
40.6941428
40.69205751
40.6899698
40.6878797
40.68578724
40.68369244
40.68159534
40.67949597
40.67739437
40.67529058
40.67318464
40.67107661
40.66896654
40.66685447
40.66474045
40.66262455
40.6605068
40.65838725
40.65626596
40.65414295
40.65201826
40.64989191
40.64776394
40.64563433
40.64350311
40.64137028
40.63923581
40.63709971
40.63496196
40.63282253
40.63068142
40.62853859
40.62639405
40.62424776
40.62209973
40.61994994
40.61779839
40.61564508
40.61349002
40.61133321
40.60917467
40.60701442
40.60485246
40.60268882
40.6005235
40.59835652
40.59618789
40.59401763
40.59184574
40.58967223
40.58749709
40.58532035
40.58314198
40.580962
40.57878041
40.57659721
40.57441239
40.57222598
40.57003796
40.56784835
40.56565715
40.56346438
40.56127006
40.55907419
40.55687679
40.55467786
40.55247744
40.55027552
40.54807212
40.54586725
40.5436609
40.5414531
40.53924383
40.53703309
40.53482089
40.53260721
40.53039206
40.52817542
40.5259573
40.52373768
40.52151657
40.51929396
40.51706986
40.51484428
40.51261722
40.51038869
40.50815872
40.50592731
40.5036945
40.5014603
40.49922475
40.49698786
40.49474967
40.4925102
40.49026948
40.48802754
40.48578439
40.48354007
40.48129458
40.47904797
40.47680023
40.47455138
40.47230145
40.47005044
40.46779836
40.46554523
40.46329106
40.46103585
40.45877962
40.45652237
40.45426411
40.45200485
40.4497446
40.44748338
40.44522117
40.44295801
40.44069388
40.43842881
40.43616279
40.43389583