/*--------------------------------*- C++ -*----------------------------------*\
| =========                 |                                                 |
| \\      /  F ield         | OpenFOAM: The Open Source CFD Toolbox           |
|  \\    /   O peration     | Version:  v1812                                 |
|   \\  /    A nd           | Web:      www.OpenFOAM.com                      |
|    \\/     M anipulation  |                                                 |
\*---------------------------------------------------------------------------*/
FoamFile
{
    version     2.0;
    format      ascii;
    class       volScalarField;
    location    "1.8";
    object      rho;
}
// * * * * * * * * * * * * * * * * * * * * * * * * * * * * * * * * * * * * * //

dimensions      [1 -3 0 0 0 0 0];


internalField   nonuniform List<scalar> 
8000
(
3.857139545
3.857139545
3.857139545
3.857139545
3.857139545
3.857139545
3.857139545
3.857139545
3.857139545
3.857139545
3.857139545
3.857139545
3.857139545
3.857139545
3.857139545
3.857139545
3.857139545
3.857139545
3.857139545
3.857139545
3.857139545
3.857139545
3.857139545
3.857139545
3.857139545
3.857139545
3.857139545
3.857139545
3.857139545
3.857139545
3.857139545
3.857139545
3.857139545
3.857139545
3.857139545
3.857139545
3.857139545
3.857139545
3.857139545
3.857139545
3.857139545
3.857139545
3.857139545
3.857139545
3.857139545
3.857139545
3.857139545
3.857139545
3.857139545
3.857139545
3.857139545
3.857139545
3.857139545
3.857139545
3.857139545
3.857139545
3.857139545
3.857139545
3.857139545
3.857139545
3.857139545
3.857139545
3.857139545
3.857139545
3.857139545
3.857139545
3.857139545
3.857139545
3.857139545
3.857139545
3.857139545
3.857139545
3.857139545
3.857139545
3.857139545
3.857139545
3.857139545
3.857139545
3.857139545
3.857139545
3.857139545
3.857139545
3.857139545
3.857139545
3.857139545
3.857139545
3.857139545
3.857139545
3.857139545
3.857139545
3.857139545
3.857139545
3.857139545
3.857139545
3.857139545
3.857139545
3.857139545
3.857139545
3.857139545
3.857139545
3.857139545
3.857139545
3.857139545
3.857139545
3.857139545
3.857139545
3.857139545
3.857139545
3.857139545
3.857139545
3.857139545
3.857139545
3.857139545
3.857139545
3.857139545
3.857139545
3.857139545
3.857139545
3.857139545
3.857139545
3.857139545
3.857139545
3.857139545
3.857139545
3.857139545
3.857139545
3.857139545
3.857139545
3.857139545
3.857139545
3.857139545
3.857139545
3.857139545
3.857139545
3.857139545
3.857139545
3.857139545
3.857139545
3.857139545
3.857139545
3.857139545
3.857139545
3.857139545
3.857139545
3.857139545
3.857139545
3.857139545
3.857139545
3.857139545
3.857139545
3.857139545
3.857139545
3.857139545
3.857139545
3.857139545
3.857139545
3.857139545
3.857139545
3.857139545
3.857139545
3.857139545
3.857139545
3.857139545
3.857139545
3.857139545
3.857139545
3.857139545
3.857139545
3.857139545
3.857139545
3.857139545
3.857139545
3.857139545
3.857139545
3.857139545
3.857139545
3.857139545
3.857139545
3.857139545
3.857139545
3.857139545
3.857139545
3.857139545
3.857139545
3.857139545
3.857139545
3.857139545
3.857139545
3.857139545
3.857139545
3.857139545
3.857139545
3.857139545
3.857139545
3.857139545
3.857139545
3.857139545
3.857139545
3.857139545
3.857139545
3.857139545
3.857139545
3.857139545
3.857139545
3.857139545
3.857139545
3.857139545
3.857139545
3.857139545
3.857139545
3.857139545
3.857139545
3.857139545
3.857139545
3.857139545
3.857139545
3.857139545
3.857139545
3.857139545
3.857139545
3.857139545
3.857139545
3.857139545
3.857139545
3.857139545
3.857139545
3.857139545
3.857139545
3.857139545
3.857139545
3.857139545
3.857139545
3.857139545
3.857139545
3.857139545
3.857139545
3.857139545
3.857139545
3.857139545
3.857139545
3.857139545
3.857139545
3.857139545
3.857139545
3.857139545
3.857139545
3.857139545
3.857139545
3.857139545
3.857139545
3.857139545
3.857139545
3.857139545
3.857139545
3.857139545
3.857139545
3.857139545
3.857139545
3.857139545
3.857139545
3.857139545
3.857139545
3.857139545
3.857139545
3.857139545
3.857139545
3.857139545
3.857139545
3.857139545
3.857139545
3.857139545
3.857139545
3.857139545
3.857139545
3.857139545
3.857139545
3.857139545
3.857139545
3.857139545
3.857139545
3.857139545
3.857139545
3.857139545
3.857139545
3.857139545
3.857139545
3.857139545
3.857139545
3.857139545
3.857139545
3.857139545
3.857139545
3.857139545
3.857139545
3.857139545
3.857139545
3.857139545
3.857139545
3.857139545
3.857139545
3.857139545
3.857139545
3.857139545
3.857139545
3.857139545
3.857139545
3.857139545
3.857139545
3.857139545
3.857139545
3.857139545
3.857139545
3.857139545
3.857139545
3.857139545
3.857139545
3.857139545
3.857139545
3.857139545
3.857139545
3.857139545
3.857139545
3.857139545
3.857139545
3.857139545
3.857139545
3.857139545
3.857139545
3.857139545
3.857139545
3.857139545
3.857139545
3.857139545
3.857139545
3.857139545
3.857139545
3.857139545
3.857139545
3.857139545
3.857139545
3.857139545
3.857139545
3.857139545
3.857139545
3.857139545
3.857139545
3.857139545
3.857139545
3.857139545
3.857139545
3.857139545
3.857139545
3.857139545
3.857139545
3.857139545
3.857139545
3.857139545
3.857139545
3.857139545
3.857139545
3.857139545
3.857139545
3.857139545
3.857139545
3.857139545
3.857139545
3.857139545
3.857139545
3.857139545
3.857139545
3.857139545
3.857139545
3.857139545
3.857139545
3.857139545
3.857139545
3.857139545
3.857139545
3.857139545
3.857139545
3.857139545
3.857139545
3.857139545
3.857139545
3.857139545
3.857139545
3.857139545
3.857139545
3.857139545
3.857139545
3.857139545
3.857139545
3.857139545
3.857139545
3.857139545
3.857139545
3.857139545
3.857139545
3.857139545
3.857139545
3.857139545
3.857139545
3.857139545
3.857139545
3.857139545
3.857139545
3.857139545
3.857139545
3.857139545
3.857139545
3.857139545
3.857139545
3.857139545
3.857139545
3.857139545
3.857139545
3.857139545
3.857139545
3.857139545
3.857139545
3.857139545
3.857139545
3.857139545
3.857139545
3.857139545
3.857139545
3.857139545
3.857139545
3.857139545
3.857139545
3.857139545
3.857139545
3.857139545
3.857139545
3.857139545
3.857139545
3.857139545
3.857139545
3.857139545
3.857139545
3.857139545
3.857139545
3.857139545
3.857139545
3.857139545
3.857139545
3.857139545
3.857139545
3.857139545
3.857139545
3.857139545
3.857139545
3.857139545
3.857139545
3.857139545
3.857139545
3.857139545
3.857139545
3.857139545
3.857139545
3.857139545
3.857139545
3.857139545
3.857139545
3.857139545
3.857139545
3.857139545
3.857139545
3.857139545
3.857139545
3.857139545
3.857139545
3.857139545
3.857139545
3.857139545
3.857139545
3.857139545
3.857139545
3.857139545
3.857139545
3.857139545
3.857139545
3.857139545
3.857139545
3.857139545
3.857139545
3.857139545
3.857139545
3.857139545
3.857139545
3.857139545
3.857139545
3.857139545
3.857139545
3.857139545
3.857139545
3.857139545
3.857139545
3.857139545
3.857139545
3.857139545
3.857139545
3.857139545
3.857139545
3.857139545
3.857139545
3.857139545
3.857139545
3.857139545
3.857139545
3.857139545
3.857139545
3.857139545
3.857139545
3.857139545
3.857139545
3.857139545
3.857139545
3.857139545
3.857139545
3.857139545
3.857139545
3.857139545
3.857139545
3.857139545
3.857139545
3.857139545
3.857139545
3.857139545
3.857139545
3.857139545
3.857139545
3.857139545
3.857139545
3.857139545
3.857139545
3.857139545
3.857139545
3.857139545
3.857139545
3.857139545
3.857139545
3.857139545
3.857139545
3.857139545
3.857139545
3.857139545
3.857139545
3.857139545
3.857139545
3.857139545
3.857139545
3.857139545
3.857139545
3.857139545
3.857139545
3.857139545
3.857139545
3.857139545
3.857139545
3.857139545
3.857139545
3.857139545
3.857139545
3.857139545
3.857139545
3.857139545
3.857139545
3.857139545
3.857139545
3.857139545
3.857139545
3.857139545
3.857139545
3.857139545
3.857139545
3.857139545
3.857139545
3.857139545
3.857139545
3.857139545
3.857139545
3.857139545
3.857139545
3.857139545
3.857139545
3.857139545
3.857139545
3.857139545
3.857139545
3.857139545
3.857139545
3.857139545
3.857139545
3.857139545
3.857139545
3.857139545
3.857139545
3.857139545
3.857139545
3.857139545
3.857139545
3.857139545
3.857139545
3.857139545
3.857139545
3.857139545
3.857139545
3.857139545
3.857139545
3.857139545
3.857139545
3.857139545
3.857139545
3.857139545
3.857139545
3.857139545
3.857139545
3.857139545
3.857139545
3.857139545
3.857139545
3.857139545
3.857139545
3.857139545
3.857139545
3.857139545
3.857139545
3.857139545
3.857139545
3.857139545
3.857139545
3.857139545
3.857139545
3.857139545
3.857139545
3.857139545
3.857139545
3.857139545
3.857139545
3.857139545
3.857139545
3.857139545
3.857139545
3.857139545
3.857139545
3.857139545
3.857139545
3.857139545
3.857139545
3.857139545
3.857139545
3.857139545
3.857139545
3.857139545
3.857139545
3.857139545
3.857139545
3.857139545
3.857139545
3.857139545
3.857139545
3.857139545
3.857139545
3.857139545
3.857139545
3.857139545
3.857139545
3.857139545
3.857139545
3.857139545
3.857139545
3.857139545
3.857139545
3.857139545
3.857139545
3.857139545
3.857139545
3.857139545
3.857139545
3.857139545
3.857139545
3.857139545
3.857139545
3.857139545
3.857139545
3.857139545
3.857139545
3.857139545
3.857139545
3.857139545
3.857139545
3.857139545
3.857139545
3.857139545
3.857139545
3.857139545
3.857139545
3.857139545
3.857139545
3.857139545
3.857139545
3.857139545
3.857139545
3.857139545
3.857139545
3.857139545
3.857139545
3.857139545
3.857139545
3.857139545
3.857139545
3.857139545
3.857139545
3.857139545
3.857139545
3.857139545
3.857139545
3.857139545
3.857139545
3.857139545
3.857139545
3.857139545
3.857139545
3.857139545
3.857139545
3.857139545
3.857139545
3.857139545
3.857139545
3.857139545
3.857139545
3.857139545
3.857139545
3.857139545
3.857139545
3.857139545
3.857139545
3.857139545
3.857139545
3.857139545
3.857139545
3.857139545
3.857139545
3.857139545
3.857139545
3.857139545
3.857139545
3.857139545
3.857139545
3.857139545
3.857139545
3.857139545
3.857139545
3.857139545
3.857139545
3.857139545
3.857139545
3.857139545
3.857139545
3.857139545
3.857139545
3.857139545
3.857139545
3.857139545
3.857139545
3.857139545
3.857139545
3.857139545
3.857139545
3.857139545
3.857139545
3.857139545
3.857139545
3.857139545
3.857139545
3.857139545
3.857139545
3.857139545
3.857139545
3.857139545
3.857139545
3.857139545
3.857139545
3.857139545
3.857139545
3.857139545
3.857139545
3.857139545
3.857139545
3.857139545
3.857139545
3.857139545
3.857139545
3.857139545
3.857139545
3.857139545
3.857139545
3.857139545
3.857139545
3.857139545
3.857139545
3.857139545
3.857139545
3.857139545
3.857139545
3.857139545
3.857139545
3.857139545
3.857139545
3.857139545
3.857139545
3.857139545
3.857139545
3.857139545
3.857139545
3.857139545
3.857139545
3.857139545
3.857139545
3.857139545
3.857139545
3.857139545
3.857139545
3.857139545
3.857139545
3.857139545
3.857139545
3.857139545
3.857139545
3.857139545
3.857139545
3.857139545
3.857139545
3.857139545
3.857139545
3.857139545
3.857139545
3.857139545
3.857139545
3.857139545
3.857139545
3.857139545
3.857139545
3.857139545
3.857139545
3.857139545
3.857139545
3.857139545
3.857139545
3.857139545
3.857139545
3.857139545
3.857139545
3.857139545
3.857139545
3.857139545
3.857139545
3.857139545
3.857139545
3.857139545
3.857139545
3.857139545
3.857139545
3.857139545
3.857139545
3.857139545
3.857139545
3.857139545
3.857139545
3.857139545
3.857139545
3.857139545
3.857139545
3.857139545
3.857139545
3.857139545
3.857139545
3.857139545
3.857139545
3.857139545
3.857139545
3.857139545
3.857139545
3.857139545
3.857139545
3.857139545
3.857139545
3.857139545
3.857139545
3.857139545
3.857139545
3.857139545
3.857139545
3.857139545
3.857139545
3.857139545
3.857139545
3.857139545
3.857139545
3.857139545
3.857139545
3.857139545
3.857139545
3.857139545
3.857139545
3.857139545
3.857139545
3.857139545
3.857139545
3.857139545
3.857139545
3.857139545
3.857139545
3.857139545
3.857139545
3.857139545
3.857139545
3.857139545
3.857139545
3.857139545
3.857139545
3.857139545
3.857139545
3.857139545
3.857139545
3.857139545
3.857139545
3.857139545
3.857139545
3.857139545
3.857139545
3.857139545
3.857139545
3.857139545
3.857139545
3.857139545
3.857139545
3.857139545
3.857139545
3.857139545
3.857139545
3.857139545
3.857139545
3.857139545
3.857139545
3.857139545
3.857139545
3.857139545
3.857139545
3.857139545
3.857139545
3.857139545
3.857139545
3.857139545
3.857139545
3.857139545
3.857139545
3.857139545
3.857139545
3.857139545
3.857139545
3.857139545
3.857139545
3.857139545
3.857139545
3.857139545
3.857139545
3.857139545
3.857139545
3.857139545
3.857139545
3.857139545
3.857139545
3.857139545
3.857139545
3.857139545
3.857139545
3.857139545
3.857139545
3.857139545
3.857139545
3.857139545
3.857139545
3.857139545
3.857139545
3.857139545
3.857139545
3.857139545
3.857139545
3.857139545
3.857139545
3.857139545
3.857139545
3.857139545
3.857139545
3.857139545
3.857139545
3.857139545
3.857139545
3.857139545
3.857139545
3.857139545
3.857139545
3.857139545
3.857139545
3.857139545
3.857139545
3.857139545
3.857139545
3.857139545
3.857139545
3.857139545
3.857139545
3.857139545
3.857139545
3.857139545
3.857139545
3.857139545
3.857139545
3.857139545
3.857139545
3.857139545
3.857139545
3.857139545
3.857139545
3.857139545
3.857139545
3.857139545
3.857139545
3.857139545
3.857139545
3.857139545
3.857139545
3.857139545
3.857139545
3.857139545
3.857139545
3.857139545
3.857139545
3.857139545
3.857139545
3.857139545
3.857139545
3.857139545
3.857139545
3.857139545
3.857139545
3.857139545
3.857139545
3.857139545
3.857139545
3.857139545
3.857139545
3.857139545
3.857139545
3.857139545
3.857139545
3.857139545
3.857139545
3.857139545
3.857139545
3.857139545
3.857139545
3.857139545
3.857139545
3.857139545
3.857139545
3.857139545
3.857139545
3.857139545
3.857139545
3.857139545
3.857139545
3.857139545
3.857139545
3.857139545
3.857139545
3.857139545
3.857139545
3.857139545
3.857139545
3.857139545
3.857139545
3.857139545
3.857139545
3.857139545
3.857139545
3.857139545
3.857139545
3.857139545
3.857139545
3.857139545
3.857139545
3.857139545
3.857139545
3.857139545
3.857139545
3.857139545
3.857139545
3.857139545
3.857139545
3.857139545
3.857139545
3.857139545
3.857139545
3.857139545
3.857139545
3.857139545
3.857139545
3.857139545
3.857139545
3.857139545
3.857139545
3.857139545
3.857139545
3.857139545
3.857139545
3.857139545
3.857139545
3.857139545
3.857139545
3.857139545
3.857139545
3.857139545
3.857139545
3.857139545
3.857139545
3.857139545
3.857139545
3.857139545
3.857139545
3.857139545
3.857139545
3.857139545
3.857139545
3.857139545
3.857139545
3.857139545
3.857139545
3.857139545
3.857139545
3.857139545
3.857139545
3.857139545
3.857139545
3.857139545
3.857139545
3.857139545
3.857139545
3.857139545
3.857139545
3.857139545
3.857139545
3.857139545
3.857139545
3.857139545
3.857139545
3.857139545
3.857139545
3.857139545
3.857139545
3.857139545
3.857139545
3.857139545
3.857139545
3.857139545
3.857139545
3.857139545
3.857139545
3.857139545
3.857139545
3.857139545
3.857139545
3.857139545
3.857139545
3.857139545
3.857139545
3.857139545
3.857139545
3.857139545
3.857139545
3.857139545
3.857139545
3.857139545
3.857139545
3.857139545
3.857139545
3.857139545
3.857139545
3.857139545
3.857139545
3.857139545
3.857139545
3.857139545
3.857139545
3.857139545
3.857139545
3.857139545
3.857139545
3.857139545
3.857139545
3.857139545
3.857139545
3.857139545
3.857139545
3.857139545
3.857139545
3.857139545
3.857139545
3.857139545
3.857139545
3.857139545
3.857139545
3.857139545
3.857139545
3.857139545
3.857139545
3.857139545
3.857139545
3.857139545
3.857139545
3.857139545
3.857139545
3.857139545
3.857139545
3.857139545
3.857139545
3.857139545
3.857139545
3.857139545
3.857139545
3.857139545
3.857139545
3.857139545
3.857139545
3.857139545
3.857139545
3.857139545
3.857139545
3.857139545
3.857139545
3.857139545
3.857139545
3.857139545
3.857139545
3.857139545
3.857139545
3.857139545
3.857139545
3.857139545
3.857139545
3.857139545
3.857139545
3.857139545
3.857139545
3.857139545
3.857139545
3.857139545
3.857139545
3.857139545
3.857139545
3.857139545
3.857139545
3.857139545
3.857139545
3.857139545
3.857139545
3.857139545
3.857139545
3.857139545
3.857139545
3.857139545
3.857139545
3.857139545
3.857139545
3.857139545
3.857139545
3.857139545
3.857139545
3.857139545
3.857139545
3.857139545
3.857139545
3.857139545
3.857139545
3.857139545
3.857139545
3.857139545
3.857139545
3.857139545
3.857139545
3.857139545
3.857139545
3.857139545
3.857139545
3.857139545
3.857139545
3.857139545
3.857139545
3.857139545
3.857139545
3.857139545
3.857139545
3.857139545
3.857139545
3.857139545
3.857139545
3.857139545
3.857139545
3.857139545
3.857139545
3.857139545
3.857139545
3.857139545
3.857139545
3.857139545
3.857139545
3.857139545
3.857139545
3.857139545
3.857139545
3.857139545
3.857139545
3.857139545
3.857139545
3.857139545
3.857139545
3.857139545
3.857139545
3.857139545
3.857139545
3.857139545
3.857139545
3.857139545
3.857139545
3.857139545
3.857139545
3.857139545
3.857139545
3.857139545
3.857139545
3.857139545
3.857139545
3.857139545
3.857139545
3.857139545
3.857139545
3.857139545
3.857139545
3.857139545
3.857139545
3.857139545
3.857139545
3.857139545
3.857139545
3.857139545
3.857139545
3.857139545
3.857139545
3.857139545
3.857139545
3.857139545
3.857139545
3.857139545
3.857139545
3.857139545
3.857139545
3.857139545
3.857139545
3.857139545
3.857139545
3.857139545
3.857139545
3.857139545
3.857139545
3.857139545
3.857139545
3.857139545
3.857139545
3.857139545
3.857139545
3.857139545
3.857139545
3.857139545
3.857139545
3.857139545
3.857139545
3.857139545
3.857139545
3.857139545
3.857139545
3.857139545
3.857139545
3.857139545
3.857139545
3.857139545
3.857139545
3.857139545
3.857139545
3.857139545
3.857139545
3.857139545
3.857139545
3.857139545
3.857139545
3.857139545
3.857139545
3.857139545
3.857139545
3.857139545
3.857139545
3.857139545
3.857139545
3.857139545
3.857139545
3.857139545
3.857139545
3.857139545
3.857139545
3.857139545
3.857139545
3.857139545
3.857139545
3.857139545
3.857139545
3.857139545
3.857139545
3.857139545
3.857139545
3.857139545
3.857139545
3.857139545
3.857139545
3.857139545
3.857139545
3.857139545
3.857139545
3.857139545
3.857139545
3.857139545
3.857139545
3.857139545
3.857139545
3.857139545
3.857139545
3.857139545
3.857139545
3.857139545
3.857139545
3.857139545
3.857139545
3.857139545
3.857139545
3.857139545
3.857139545
3.857139545
3.857139545
3.857139545
3.857139545
3.857139545
3.857139545
3.857139545
3.857139545
3.857139545
3.857139545
3.857139545
3.857139545
3.857139545
3.857139545
3.857139545
3.857139545
3.857139545
3.857139545
3.857139545
3.857139545
3.857139545
3.857139545
3.857139545
3.857139545
3.857139545
3.857139545
3.857139545
3.857139545
3.857139545
3.857139545
3.857139545
3.857139545
3.857139545
3.857139545
3.857139545
3.857139545
3.857139545
3.857139545
3.857139545
3.857139545
3.857139545
3.857139545
3.857139545
3.857139545
3.857139545
3.857139545
3.857139545
3.857139545
3.857139545
3.857139545
3.857139545
3.857139545
3.857139545
3.857139545
3.857139545
3.857139545
3.857139545
3.857139545
3.857139545
3.857139545
3.857139545
3.857139545
3.857139545
3.857139545
3.857139545
3.857139545
3.857139545
3.857139545
3.857139545
3.857139545
3.857139545
3.857139545
3.857139545
3.857139545
3.857139545
3.857139545
3.857139545
3.857139545
3.857139545
3.857139545
3.857139545
3.857139545
3.857139545
3.857139545
3.857139545
3.857139545
3.857139545
3.857139545
3.857139545
3.857139545
3.857139545
3.857139545
3.857139545
3.857139545
3.857139545
3.857139545
3.857139545
3.857139545
3.857139545
3.857139545
3.857139545
3.857139545
3.857139545
3.857139545
3.857139545
3.857139545
3.857139545
3.857139545
3.857139545
3.857139545
3.857139545
3.857139545
3.857139545
3.857139545
3.857139545
3.857139545
3.857139545
3.857139545
3.857139545
3.857139545
3.857139545
3.857139545
3.857139545
3.857139545
3.857139545
3.857139545
3.857139545
3.857139545
3.857139545
3.857139545
3.857139545
3.857139545
3.857139545
3.857139545
3.857139545
3.857139545
3.857139545
3.857139545
3.857139545
3.857139545
3.857139545
3.857139545
3.857139545
3.857139545
3.857139545
3.857139545
3.857139545
3.857139545
3.857139545
3.857139545
3.857139545
3.857139545
3.857139545
3.857139545
3.857139545
3.857139545
3.857139545
3.857139545
3.857139545
3.857139545
3.857139545
3.857139545
3.857139545
3.857139545
3.857139545
3.857139545
3.857139545
3.857139545
3.857139545
3.857139545
3.857139545
3.857139545
3.857139545
3.857139545
3.857139545
3.857139545
3.857139545
3.857139545
3.857139545
3.857139545
3.857139545
3.857139545
3.857139545
3.857139545
3.857139545
3.857139545
3.857139545
3.857139545
3.857139545
3.857139545
3.857139545
3.857139545
3.857139545
3.857139545
3.857139545
3.857139545
3.857139545
3.857139545
3.857139545
3.857139545
3.857139545
3.857139545
3.857139545
3.857139545
3.857139545
3.857139545
3.857139545
3.857139545
3.857139545
3.857139545
3.857139545
3.857139545
3.857139545
3.857139545
3.857139545
3.857139545
3.857139545
3.857139545
3.857139545
3.857139545
3.857139545
3.857139545
3.857139545
3.857139545
3.857139545
3.857139545
3.857139545
3.857139545
3.857139545
3.857139545
3.857139545
3.857139545
3.857139545
3.857139545
3.857139545
3.857139545
3.857139545
3.857139545
3.857139545
3.857139545
3.857139545
3.857139545
3.857139545
3.857139545
3.857139545
3.857139545
3.857139545
3.857139545
3.857139545
3.857139545
3.857139545
3.857139545
3.857139545
3.857139545
3.857139545
3.857139545
3.857139545
3.857139545
3.857139545
3.857139545
3.857139545
3.857139545
3.857139545
3.857139545
3.857139545
3.857139545
3.857139545
3.857139544
3.857139544
3.857139544
3.857139544
3.857139544
3.857139544
3.857139544
3.857139543
3.857139542
3.857139541
3.85713954
3.857139538
3.857139535
3.857139531
3.857139526
3.857139518
3.857139507
3.857139492
3.857139471
3.857139442
3.857139402
3.857139347
3.857139272
3.85713917
3.857139033
3.857138847
3.857138598
3.857138265
3.857137821
3.857137233
3.857136457
3.857135438
3.857134105
3.857132369
3.85713012
3.85712722
3.857123499
3.857118747
3.857112709
3.857105077
3.85709548
3.857083474
3.857068538
3.857050056
3.857027316
3.856999494
3.856965651
3.856924726
3.856875529
3.856816748
3.856746944
3.856664565
3.856567953
3.856455365
3.856324992
3.85617499
3.856003506
3.855808716
3.855588858
3.855342272
3.855067434
3.854762991
3.854427788
3.854060892
3.853661612
3.853229505
3.852764382
3.852266301
3.851735555
3.851172659
3.850578322
3.849953426
3.849298997
3.848616177
3.847906197
3.847170349
3.846409964
3.845626387
3.844820961
3.843995007
3.843149817
3.842286637
3.841406663
3.840511036
3.839600835
3.83867708
3.837740727
3.836792672
3.83583375
3.834864738
3.833886359
3.832899283
3.831904129
3.830901472
3.829891843
3.828875731
3.827853591
3.82682584
3.825792865
3.824755023
3.823712645
3.822666036
3.821615478
3.820561233
3.819503542
3.81844263
3.817378706
3.816311961
3.815242577
3.814170719
3.813096542
3.812020192
3.810941802
3.809861499
3.8087794
3.807695613
3.806610243
3.805523384
3.804435127
3.803345556
3.80225475
3.801162784
3.800069727
3.798975645
3.7978806
3.796784651
3.795687853
3.794590258
3.793491914
3.792392869
3.791293167
3.79019285
3.789091956
3.787990525
3.786888591
3.785786188
3.78468335
3.783580107
3.782476488
3.781372522
3.780268236
3.779163654
3.778058802
3.776953704
3.775848382
3.774742858
3.773637152
3.772531285
3.771425277
3.770319146
3.76921291
3.768106587
3.767000193
3.765893746
3.764787261
3.763680753
3.762574239
3.761467733
3.760361248
3.7592548
3.758148403
3.757042069
3.755935813
3.754829647
3.753723585
3.75261764
3.751511824
3.750406151
3.749300633
3.748195282
3.747090112
3.745985136
3.744880365
3.743775812
3.742671482
3.741567385
3.740463592
3.739360411
3.738258784
3.737157289
3.736043195
3.734856131
3.733485598
3.732232249
3.732139198
3.732548356
3.734853474
3.742942045
3.766939972
3.830473937
3.961597379
4.090145922
4.123582211
4.124490392
4.124311233
4.124195903
4.124287327
4.124643706
4.125268023
4.125962527
4.126560517
4.126953588
4.127125192
4.127129123
4.127069522
4.126982133
4.126968341
4.127032387
4.12721504
4.127456222
4.127674095
4.127827104
4.127852888
4.127833366
4.127763051
4.127666986
4.127607563
4.127593148
4.127585249
4.127592517
4.127609597
4.127607556
4.127584446
4.127523955
4.12742614
4.127303467
4.12717382
4.127052131
4.126943363
4.126842339
4.126738624
4.126621723
4.126484657
4.126325514
4.126146899
4.125954079
4.125752869
4.125548146
4.125342986
4.125138395
4.124933519
4.124726126
4.124513296
4.124292265
4.124061192
4.123819614
4.123568425
4.123309477
4.123044898
4.122776423
4.12250494
4.122230377
4.12195187
4.12166815
4.121377996
4.121080616
4.120775876
4.120464306
4.12014693
4.119824955
4.119499449
4.119171086
4.118840008
4.118505837
4.118167804
4.117824972
4.117476506
4.117121903
4.116761128
4.116394628
4.116023196
4.115647767
4.115269181
4.114887982
4.114504302
4.114117847
4.113727982
4.113333915
4.112934908
4.112530478
4.112120521
4.11170533
4.11128551
4.110861828
4.110435032
4.110005689
4.109574087
4.109140199
4.108703737
4.108264263
4.107821328
4.107374606
4.106923979
4.10646956
4.106011647
4.105550636
4.105086913
4.10462076
4.104152297
4.103681471
4.103208099
4.102731938
4.102252778
4.101770507
4.101285151
4.100796868
4.100305898
4.0998125
4.099316873
4.098819098
4.098319119
4.097816749
4.09731172
4.096803751
4.096292619
4.095778213
4.095260562
4.09473983
4.094216276
4.0936902
4.093161882
4.092631536
4.092099277
4.091565118
4.091028994
4.090490791
4.089950393
4.089407713
4.088862718
4.088315429
4.08776591
4.087214246
4.086660517
4.086104776
4.08554704
4.084987287
4.084425472
4.083861547
4.083295476
4.082727255
4.082156916
4.081584522
4.081010161
4.080433922
4.079855881
4.079276087
4.078694557
4.078111273
4.077526198
4.076939285
4.076350491
4.075759793
4.075167189
4.074572703
4.073976373
4.07337825
4.07277838
4.072176797
4.071573524
4.070968564
4.070361912
4.069753558
4.069143496
4.068531731
4.067918283
4.067303185
4.066686486
4.066068236
4.065448485
4.064827278
4.064204646
4.063580605
4.062955161
4.062328307
4.061700033
4.061070324
4.060439168
4.059806556
4.059172481
4.058536941
4.057899934
4.057261461
4.056621521
4.055980118
4.055337256
4.054692945
4.054047204
4.053400057
4.052751535
4.052101676
4.051450521
4.050798111
4.05014448
4.049489659
4.048833667
4.048176515
4.047518205
4.046858731
4.046198082
4.045536246
4.04487321
4.044208966
4.043543505
4.042876827
4.04220893
4.041539821
4.040869507
4.040197998
4.039525307
4.038851449
4.03817644
4.037500297
4.036823041
4.036144689
4.03546526
4.034784768
4.034103226
4.033420642
4.032737018
4.032052355
4.031366647
4.030679886
4.029992066
4.029303177
4.028613211
4.027922166
4.027230038
4.026536831
4.025842551
4.025147206
4.024450811
4.02375338
4.023054932
4.022355487
4.021655066
4.020953691
4.020251385
4.019548169
4.018844063
4.018139084
4.017433248
4.016726566
4.016019046
4.015310692
4.014601504
4.01389148
4.013180616
4.012468906
4.011756345
4.011042927
4.010328648
4.009613505
4.008897501
4.008180637
4.00746292
4.006744358
4.006024963
4.005304748
4.004583726
4.003861915
4.00313933
4.002415985
4.001691896
4.000967075
4.000241533
3.999515278
3.998788316
3.998060651
3.997332282
3.996603209
3.995873429
3.995142938
3.994411734
3.993679812
3.99294717
3.992213806
3.991479721
3.990744915
3.990009394
3.989273163
3.988536229
3.987798601
3.987060289
3.986321305
3.98558166
3.984841364
3.984100429
3.983358864
3.982616678
3.981873879
3.98113047
3.980386457
3.979641842
3.978896626
3.978150809
3.97740439
3.976657369
3.975909745
3.975161517
3.974412687
3.973663257
3.972913229
3.972162607
3.971411399
3.97065961
3.969907248
3.969154324
3.968400846
3.967646823
3.966892266
3.966137183
3.965381583
3.964625472
3.963868857
3.963111743
3.962354134
3.961596032
3.960837439
3.960078357
3.959318785
3.958558724
3.957798175
3.957037138
3.956275616
3.95551361
3.954751123
3.95398816
3.953224726
3.952460826
3.951696467
3.950931656
3.950166402
3.949400712
3.948634593
3.947868054
3.947101102
3.946333742
3.945565982
3.944797826
3.944029278
3.943260342
3.94249102
3.941721315
3.940951229
3.940180763
3.939409919
3.938638697
3.937867099
3.937095128
3.936322786
3.935550075
3.934776999
3.934003562
3.933229768
3.932455621
3.931681127
3.930906291
3.930131117
3.92935561
3.928579775
3.927803615
3.927027135
3.926250337
3.925473224
3.924695798
3.92391806
3.923140011
3.922361651
3.92158298
3.920803998
3.920024705
3.9192451
3.918465183
3.917684954
3.916904412
3.916123557
3.915342391
3.914560914
3.913779128
3.912997033
3.912214631
3.911431926
3.91064892
3.909865615
3.909082015
3.908298125
3.907513948
3.906729489
3.905944752
3.905159743
3.904374466
3.903588929
3.902803137
3.902017096
3.901230813
3.900444294
3.899657547
3.898870578
3.898083395
3.897296005
3.896508415
3.895720632
3.894932663
3.894144516
3.893356196
3.892567711
3.891779066
3.890990268
3.890201321
3.88941223
3.888622999
3.887833633
3.887044134
3.886254505
3.885464749
3.884674868
3.883884863
3.883094736
3.882304488
3.881514122
3.880723638
3.879933037
3.879142323
3.878351496
3.877560559
3.876769515
3.875978366
3.875187117
3.874395769
3.873604327
3.872812794
3.872021175
3.871229474
3.870437693
3.869645838
3.868853912
3.86806192
3.867269864
3.86647775
3.86568558
3.864893359
3.86410109
3.863308777
3.862516423
3.861724033
3.860931611
3.860139159
3.859346682
3.858554183
3.857761667
3.856969135
3.856176593
3.855384042
3.854591485
3.853798926
3.853006366
3.852213807
3.85142125
3.850628697
3.849836149
3.849043605
3.848251066
3.847458532
3.846666003
3.845873478
3.845080959
3.844288446
3.843495938
3.842703437
3.841910945
3.841118464
3.840325996
3.839533545
3.838741115
3.837948711
3.837156338
3.836364003
3.835571712
3.834779473
3.833987292
3.833195178
3.832403139
3.831611183
3.830819319
3.830027555
3.829235898
3.828444356
3.827652938
3.826861649
3.826070497
3.825279488
3.824488628
3.823697921
3.822907373
3.822116989
3.821326771
3.820536723
3.819746849
3.818957151
3.818167632
3.817378293
3.816589137
3.815800166
3.81501138
3.814222782
3.813434373
3.812646154
3.811858126
3.811070291
3.81028265
3.809495205