/*--------------------------------*- C++ -*----------------------------------*\
| =========                 |                                                 |
| \\      /  F ield         | OpenFOAM: The Open Source CFD Toolbox           |
|  \\    /   O peration     | Version:  v1812                                 |
|   \\  /    A nd           | Web:      www.OpenFOAM.com                      |
|    \\/     M anipulation  |                                                 |
\*---------------------------------------------------------------------------*/
FoamFile
{
    version     2.0;
    format      ascii;
    class       volScalarField;
    location    "0.25";
    object      p;
}
// * * * * * * * * * * * * * * * * * * * * * * * * * * * * * * * * * * * * * //

dimensions      [1 -1 -2 0 0 0 0];


internalField   nonuniform List<scalar> 
800
(
1
1
1
1
1
1
1
1
1
1
1
1
1
1
1
1
1
1
1
1
1
1
1
1
1
1
1
1
1
1
1
1
1
1
1
1
1
1
1
1
1
1
1
1
1
1
1
1
1
1
1
1
1
1
1
1
1
1
1
1
1
1
1
1
1
1
1
1
1
1
1
1
1
1
1
1
1
1
1
1
1
1
1
1
1
1
1
1
1
1
1
1
1
1
1
1
1
1
1
1
1
1
1
1
1
1
1
1
1
1
1
1
1
1
1
1
1
1
1
1
1
1
1
1
1
1
1
1
1
1
1
0.999999
0.999999
0.999998
0.999995
0.999991
0.999984
0.999973
0.999954
0.999925
0.999882
0.999817
0.999725
0.999596
0.999419
0.999183
0.998874
0.998479
0.997982
0.997369
0.996627
0.995742
0.994705
0.993505
0.992137
0.990596
0.988881
0.986991
0.98493
0.982702
0.980312
0.977768
0.975077
0.972249
0.969292
0.966216
0.963029
0.959741
0.95636
0.952894
0.949352
0.94574
0.942066
0.938336
0.934556
0.930731
0.926867
0.922968
0.919038
0.915082
0.911103
0.907104
0.903088
0.899058
0.895016
0.890965
0.886907
0.882843
0.878775
0.874705
0.870634
0.866564
0.862496
0.85843
0.854368
0.85031
0.846258
0.842213
0.838174
0.834143
0.83012
0.826106
0.822101
0.818105
0.81412
0.810145
0.806181
0.802229
0.798287
0.794357
0.79044
0.786534
0.782641
0.778761
0.774893
0.771038
0.767197
0.763368
0.759553
0.755751
0.751963
0.748189
0.744429
0.740682
0.736949
0.73323
0.729525
0.725835
0.722158
0.718496
0.714847
0.711213
0.707594
0.703988
0.700397
0.69682
0.693258
0.689709
0.686176
0.682656
0.679151
0.67566
0.672184
0.668721
0.665274
0.66184
0.658421
0.655016
0.651625
0.648249
0.644886
0.641538
0.638204
0.634885
0.631579
0.628288
0.62501
0.621747
0.618497
0.615262
0.612041
0.608833
0.60564
0.60246
0.599294
0.596142
0.593004
0.589879
0.586768
0.583671
0.580587
0.577517
0.57446
0.571417
0.568388
0.565372
0.562369
0.559379
0.556403
0.55344
0.550491
0.547554
0.544631
0.541721
0.538824
0.53594
0.533068
0.53021
0.527365
0.524532
0.521713
0.518906
0.516112
0.51333
0.510561
0.507805
0.505061
0.50233
0.499611
0.496905
0.494211
0.491529
0.48886
0.486203
0.483558
0.480925
0.478304
0.475695
0.473099
0.470514
0.467941
0.46538
0.462831
0.460294
0.457769
0.455255
0.452753
0.450263
0.447784
0.445316
0.44286
0.440416
0.437983
0.435561
0.433151
0.430752
0.428364
0.425987
0.423622
0.421268
0.418924
0.416592
0.414271
0.41196
0.409661
0.407372
0.405094
0.402827
0.400571
0.398325
0.39609
0.393866
0.391652
0.389449
0.387256
0.385074
0.382902
0.38074
0.378589
0.376448
0.374317
0.372197
0.370087
0.367986
0.365896
0.363816
0.361746
0.359685
0.357635
0.355594
0.353563
0.351541
0.34953
0.347527
0.345535
0.343551
0.341577
0.339612
0.337656
0.335709
0.333771
0.331842
0.329921
0.328008
0.326102
0.324204
0.322313
0.320427
0.318545
0.316666
0.314788
0.312912
0.311054
0.309265
0.307685
0.306564
0.306086
0.305992
0.305985
0.306007
0.306133
0.306502
0.307172
0.307779
0.307884
0.307856
0.30769
0.307361
0.307136
0.30714
0.307206
0.307434
0.307709
0.307761
0.307734
0.307615
0.307457
0.307427
0.307447
0.307532
0.307633
0.307639
0.307624
0.307578
0.307542
0.307544
0.307562
0.307588
0.307596
0.307594
0.307583
0.307573
0.307574
0.30758
0.30758
0.307579
0.307577
0.307576
0.307577
0.30758
0.307581
0.307581
0.30758
0.307579
0.307579
0.307578
0.307577
0.307576
0.307576
0.307576
0.307578
0.307579
0.307579
0.307578
0.307577
0.307576
0.307575
0.307575
0.307574
0.307573
0.307572
0.307573
0.307574
0.307574
0.307574
0.307572
0.307571
0.307572
0.307573
0.307574
0.307574
0.307574
0.307574
0.307574
0.307573
0.30757
0.30757
0.307571
0.307573
0.307573
0.307573
0.307572
0.307571
0.30757
0.307571
0.307571
0.307571
0.30757
0.307569
0.30757
0.30757
0.307571
0.30757
0.307569
0.307569
0.307568
0.307568
0.307569
0.307569
0.307569
0.307568
0.307568
0.307568
0.307568
0.307569
0.307569
0.307568
0.307568
0.307569
0.307569
0.307569
0.30757
0.30757
0.307571
0.307571
0.30757
0.30757
0.307569
0.30757
0.307571
0.307571
0.307571
0.30757
0.30757
0.307572
0.307572
0.307571
0.30757
0.30757
0.307571
0.307571
0.307571
0.307571
0.307571
0.307571
0.307572
0.307572
0.307571
0.307571
0.307572
0.307572
0.307572
0.307571
0.307572
0.307572
0.307572
0.307571
0.307572
0.307572
0.307572
0.307571
0.307572
0.307573
0.307572
0.307571
0.307573
0.307573
0.307572
0.307572
0.307573
0.307573
0.307573
0.307572
0.307573
0.307574
0.307573
0.307573
0.307574
0.307574
0.307574
0.307574
0.307575
0.307575
0.307575
0.307575
0.307576
0.307576
0.307576
0.307576
0.307577
0.307577
0.307577
0.307577
0.307578
0.307578
0.307579
0.307579
0.30758
0.30758
0.30758
0.307581
0.307581
0.307582
0.307582
0.307582
0.307583
0.307583
0.307583
0.307584
0.307585
0.307585
0.307586
0.307586
0.307586
0.307587
0.307588
0.307588
0.307589
0.307589
0.30759
0.30759
0.307591
0.307591
0.307592
0.307593
0.307593
0.307594
0.307594
0.307595
0.307596
0.307596
0.307597
0.307598
0.307598
0.307599
0.3076
0.3076
0.307601
0.307602
0.307602
0.307603
0.307604
0.307605
0.307605
0.307606
0.307607
0.307607
0.307608
0.307609
0.30761
0.30761
0.307611
0.307612
0.307613
0.307613
0.307614
0.307615
0.307615
0.307616
0.307617
0.307618
0.307618
0.307619
0.30762
0.30762
0.307621
0.307622
0.307623
0.307624
0.307624
0.307625
0.307626
0.307627
0.307628
0.307629
0.30763
0.30763
0.307631
0.307632
0.307633
0.307634
0.307635
0.307636
0.307637
0.307638
0.307639
0.307641
0.307642
0.307643
0.307644
0.307645
0.307646
0.307648
0.307649
0.30765
0.307651
0.307652
0.307653
0.307655
0.307656
0.307657
0.307658
0.307659
0.307661
0.307662
0.307663
0.307665
0.307666
0.307667
0.307668
0.307669
0.307671
0.307673
0.307674
0.307675
0.307676
0.307677
0.307679
0.307681
0.307682
0.307684
0.307685
0.307686
0.307688
0.30769
0.307692
0.307693
0.307695
0.307696
0.307698
0.3077
0.307702
0.307704
0.307706
0.307707
0.307709
0.307711
0.307714
0.307717
0.307718
0.307719
0.307721
0.307724
0.307726
0.307728
0.307728
0.307725
0.307717
0.307703
0.30767
0.307599
0.307448
0.307132
0.30648
0.305137
0.302375
0.296735
0.285317
0.262866
0.222318
0.163879
0.118497
0.102727
0.100134
0.100002
0.1
0.1
0.1
0.1
0.1
0.1
0.1
0.1
0.1
0.1
0.1
0.1
0.1
0.1
0.1
0.1
0.1
0.1
0.1
0.1
0.1
0.1
0.1
0.1
0.1
0.1
0.1
0.1
0.1
0.1
0.1
0.1
0.1
0.1
0.1
0.1
0.1
0.1
0.1
0.1
0.1
0.1
0.1
0.1
0.1
0.1
0.1
0.1
0.1
0.1
0.1
0.1
0.1
0.1
0.1
)
;

boundaryField
{
    sides
    {
        type            zeroGradient;
    }
    empty1
    {
        type            empty;
    }
    empty2
    {
        type            empty;
    }
}


// ************************************************************************* //
