/*--------------------------------*- C++ -*----------------------------------*\
| =========                 |                                                 |
| \\      /  F ield         | OpenFOAM: The Open Source CFD Toolbox           |
|  \\    /   O peration     | Version:  v1812                                 |
|   \\  /    A nd           | Web:      www.OpenFOAM.com                      |
|    \\/     M anipulation  |                                                 |
\*---------------------------------------------------------------------------*/
FoamFile
{
    version     2.0;
    format      ascii;
    class       surfaceScalarField;
    location    "0.25";
    object      phi;
}
// * * * * * * * * * * * * * * * * * * * * * * * * * * * * * * * * * * * * * //

dimensions      [1 0 -1 0 0 0 0];
oriented        oriented;


internalField   nonuniform List<scalar> 
799
(
3.20538e-20
1.07579e-19
2.99324e-19
3.2259e-19
1.34023e-19
1.29428e-19
-1.21972e-19
2.41151e-19
3.16893e-19
2.79115e-19
2.22695e-19
9.09046e-20
1.38974e-19
1.52832e-19
-1.12983e-20
-3.50064e-20
6.92123e-20
2.06434e-19
3.52478e-19
6.84448e-20
-1.76034e-19
5.80511e-20
2.16911e-20
-1.19702e-19
-3.08675e-19
-1.04454e-19
-1.17199e-19
8.67212e-20
2.99316e-19
2.49386e-19
1.5564e-19
3.07935e-20
1.31139e-19
6.77213e-19
7.22199e-19
7.9496e-19
9.11987e-19
8.41678e-19
7.12453e-19
8.95709e-19
7.66866e-19
9.10752e-19
9.00218e-19
8.78468e-19
7.9826e-19
9.12479e-19
9.9175e-19
8.03356e-19
1.07075e-18
1.30802e-18
1.44142e-18
1.04131e-18
9.73334e-19
9.33401e-19
9.79932e-19
1.35115e-18
1.30805e-18
1.21072e-18
1.19344e-18
1.0886e-18
9.32228e-19
1.10205e-18
1.0593e-18
1.00474e-18
1.11045e-18
7.9681e-19
5.6888e-19
7.16246e-19
6.21049e-19
8.73061e-19
4.72448e-19
9.98987e-19
1.02996e-18
7.17951e-19
9.00823e-19
9.89341e-19
9.06747e-19
8.22721e-19
9.24208e-19
1.20498e-18
9.77843e-19
1.01357e-18
8.8576e-19
8.18663e-19
7.10758e-19
1.00606e-18
7.24631e-19
6.68562e-19
6.82266e-19
1.05782e-18
6.08165e-19
8.10452e-19
7.22278e-19
7.8984e-19
5.32337e-19
5.32797e-19
2.37915e-19
-6.56377e-20
1.2272e-19
1.1439e-19
2.36265e-19
1.02566e-18
3.59294e-18
9.9845e-18
1.9073e-17
3.01992e-17
4.17529e-17
5.35175e-17
6.50957e-17
7.66552e-17
8.78572e-17
9.90037e-17
1.09827e-16
1.20173e-16
1.30468e-16
1.39959e-16
1.49632e-16
1.60224e-16
1.74165e-16
2.02814e-16
3.12239e-16
1.18001e-15
9.29306e-15
5.66944e-14
2.53486e-13
9.38793e-13
3.01923e-12
8.70703e-12
2.29805e-11
5.63107e-11
1.29448e-10
2.8138e-10
5.81895e-10
1.15044e-09
2.18305e-09
3.98903e-09
7.03821e-09
1.20189e-08
1.99047e-08
3.20261e-08
5.0141e-08
7.64965e-08
1.13871e-07
1.6559e-07
2.35502e-07
3.27914e-07
4.47491e-07
5.99101e-07
7.8765e-07
1.01789e-06
1.29423e-06
1.62056e-06
2.00012e-06
2.43538e-06
2.92799e-06
3.47875e-06
4.08766e-06
4.75399e-06
5.47629e-06
6.25259e-06
7.08044e-06
7.95705e-06
8.87937e-06
9.84423e-06
1.08484e-05
1.18885e-05
1.29614e-05
1.4064e-05
1.51932e-05
1.63463e-05
1.75206e-05
1.87135e-05
1.99227e-05
2.11462e-05
2.23818e-05
2.36277e-05
2.48823e-05
2.61441e-05
2.74115e-05
2.86835e-05
2.99587e-05
3.12361e-05
3.25147e-05
3.37937e-05
3.50723e-05
3.63498e-05
3.76254e-05
3.88986e-05
4.01689e-05
4.14357e-05
4.26986e-05
4.39572e-05
4.52112e-05
4.64601e-05
4.77037e-05
4.89416e-05
5.01738e-05
5.13998e-05
5.26195e-05
5.38328e-05
5.50394e-05
5.62391e-05
5.74319e-05
5.86177e-05
5.97962e-05
6.09674e-05
6.21312e-05
6.32875e-05
6.44362e-05
6.55773e-05
6.67107e-05
6.78364e-05
6.89542e-05
7.00642e-05
7.11663e-05
7.22605e-05
7.33468e-05
7.4425e-05
7.54953e-05
7.65575e-05
7.76118e-05
7.8658e-05
7.96961e-05
8.07262e-05
8.17483e-05
8.27623e-05
8.37682e-05
8.47661e-05
8.57559e-05
8.67378e-05
8.77116e-05
8.86773e-05
8.96351e-05
9.05849e-05
9.15267e-05
9.24605e-05
9.33864e-05
9.43043e-05
9.52144e-05
9.61165e-05
9.70108e-05
9.78973e-05
9.87759e-05
9.96467e-05
0.00010051
0.000101365
0.000102212
0.000103052
0.000103884
0.000104709
0.000105526
0.000106335
0.000107136
0.000107931
0.000108717
0.000109496
0.000110268
0.000111032
0.000111789
0.000112538
0.00011328
0.000114014
0.000114742
0.000115462
0.000116175
0.00011688
0.000117579
0.00011827
0.000118954
0.000119631
0.000120301
0.000120964
0.00012162
0.000122269
0.000122911
0.000123546
0.000124175
0.000124796
0.000125411
0.000126019
0.00012662
0.000127214
0.000127802
0.000128383
0.000128957
0.000129525
0.000130086
0.000130641
0.000131189
0.000131731
0.000132266
0.000132795
0.000133318
0.000133834
0.000134344
0.000134847
0.000135345
0.000135836
0.000136321
0.000136799
0.000137272
0.000137738
0.000138199
0.000138653
0.000139102
0.000139544
0.00013998
0.000140411
0.000140836
0.000141254
0.000141667
0.000142075
0.000142476
0.000142872
0.000143262
0.000143646
0.000144024
0.000144398
0.000144765
0.000145127
0.000145483
0.000145834
0.000146179
0.000146519
0.000146854
0.000147183
0.000147507
0.000147825
0.000148139
0.000148446
0.000148749
0.000149047
0.000149339
0.000149626
0.000149908
0.000150185
0.000150457
0.000150723
0.000150985
0.000151242
0.000151494
0.000151741
0.000151983
0.00015222
0.000152452
0.000152679
0.000152902
0.00015312
0.000153333
0.000153542
0.000153745
0.000153944
0.000154139
0.000154329
0.000154514
0.000154695
0.000154871
0.000155042
0.00015521
0.000155372
0.000155531
0.000155685
0.000155834
0.00015598
0.000156121
0.000156257
0.00015639
0.000156518
0.000156642
0.000156762
0.000156878
0.000156989
0.000157097
0.0001572
0.0001573
0.000157395
0.000157487
0.000157574
0.000157658
0.000157739
0.000157815
0.000157888
0.000157956
0.000158017
0.000158064
0.00015809
0.000158095
0.000158095
0.000158093
0.00015809
0.000158082
0.000158066
0.000158044
0.000158034
0.000158035
0.000158038
0.000158046
0.000158055
0.000158055
0.000158054
0.000158051
0.000158045
0.00015804
0.000158041
0.000158043
0.000158047
0.000158049
0.000158048
0.000158047
0.000158044
0.000158043
0.000158043
0.000158044
0.000158044
0.000158044
0.000158044
0.000158044
0.000158043
0.000158043
0.000158043
0.000158044
0.000158044
0.000158044
0.000158044
0.000158044
0.000158044
0.000158044
0.000158044
0.000158044
0.000158044
0.000158044
0.000158044
0.000158044
0.000158044
0.000158045
0.000158045
0.000158045
0.000158045
0.000158045
0.000158045
0.000158045
0.000158045
0.000158045
0.000158045
0.000158045
0.000158045
0.000158045
0.000158045
0.000158045
0.000158044
0.000158044
0.000158044
0.000158044
0.000158044
0.000158044
0.000158044
0.000158044
0.000158044
0.000158044
0.000158044
0.000158044
0.000158044
0.000158044
0.000158044
0.000158044
0.000158045
0.000158045
0.000158044
0.000158044
0.000158044
0.000158044
0.000158044
0.000158044
0.000158044
0.000158044
0.000158044
0.000158044
0.000158044
0.000158044
0.000158044
0.000158044
0.000158044
0.000158044
0.000158044
0.000158044
0.000158044
0.000158044
0.000158044
0.000158043
0.000158043
0.000158043
0.000158043
0.000158043
0.000158043
0.000158043
0.000158043
0.000158042
0.000158042
0.000158042
0.000158042
0.000158042
0.000158041
0.000158041
0.000158041
0.000158041
0.000158041
0.000158041
0.000158041
0.00015804
0.00015804
0.00015804
0.00015804
0.000158039
0.000158039
0.000158039
0.000158038
0.000158038
0.000158038
0.000158037
0.000158037
0.000158037
0.000158037
0.000158036
0.000158036
0.000158036
0.000158035
0.000158035
0.000158035
0.000158034
0.000158034
0.000158033
0.000158032
0.000158032
0.000158031
0.00015803
0.000158029
0.000158028
0.000158027
0.000158026
0.000158025
0.000158024
0.000158023
0.000158022
0.000158021
0.00015802
0.000158018
0.000158017
0.000158016
0.000158014
0.000158012
0.00015801
0.000158008
0.000158004
0.000158
0.000157994
0.000157986
0.000157974
0.000157956
0.000157931
0.000157895
0.000157844
0.000157772
0.000157672
0.000157534
0.000157346
0.000157096
0.000156766
0.000156337
0.000155789
0.0001551
0.000154248
0.000153209
0.000151965
0.0001505
0.000148802
0.000146867
0.000144701
0.000142315
0.000139731
0.00013698
0.0001341
0.000131134
0.000128131
0.000125138
0.000122205
0.000119377
0.000116694
0.000114191
0.000111894
0.000109823
0.000107986
0.000106387
0.000105021
0.000103876
0.000102935
0.000102178
0.000101582
0.000101124
0.00010078
0.000100529
0.00010035
0.000100227
0.000100145
0.000100092
0.000100059
0.000100041
0.000100031
0.000100027
0.000100026
0.000100026
0.000100027
0.000100028
0.000100029
0.000100031
0.000100032
0.000100034
0.000100036
0.000100037
0.000100039
0.00010004
0.000100041
0.000100042
0.000100043
0.000100045
0.000100046
0.000100047
0.000100048
0.000100048
0.000100049
0.00010005
0.000100051
0.000100052
0.000100052
0.000100053
0.000100054
0.000100054
0.000100055
0.000100056
0.000100056
0.000100057
0.000100058
0.000100058
0.000100059
0.00010006
0.000100061
0.000100062
0.000100062
0.000100063
0.000100064
0.000100065
0.000100066
0.000100067
0.000100067
0.000100068
0.000100069
0.000100069
0.00010007
0.000100071
0.000100072
0.000100072
0.000100073
0.000100074
0.000100074
0.000100075
0.000100076
0.000100076
0.000100077
0.000100078
0.000100079
0.000100079
0.00010008
0.000100081
0.000100082
0.000100082
0.000100083
0.000100084
0.000100085
0.000100085
0.000100086
0.000100087
0.000100088
0.000100089
0.000100089
0.00010009
0.000100091
0.000100092
0.000100092
0.000100093
0.000100094
0.000100095
0.000100095
0.000100096
0.000100097
0.000100098
0.000100099
0.0001001
0.0001001
0.000100101
0.000100102
0.000100103
0.000100104
0.000100105
0.000100106
0.000100107
0.000100107
0.000100108
0.000100109
0.000100111
0.000100112
0.000100113
0.000100114
0.000100115
0.000100116
0.000100117
0.000100118
0.000100119
0.00010012
0.000100121
0.000100123
0.000100124
0.000100125
0.000100126
0.000100128
0.000100128
0.000100129
0.000100128
0.000100127
0.000100122
0.000100111
0.000100086
0.000100034
9.99239e-05
9.96962e-05
9.92261e-05
9.82599e-05
9.62881e-05
9.23189e-05
8.4465e-05
6.99249e-05
4.55908e-05
1.73246e-05
3.14975e-06
1.75151e-07
2.28786e-09
6.7523e-12
2.63713e-15
1.53318e-19
-5.87892e-22
-5.28925e-21
3.09026e-21
-3.29861e-21
-9.65581e-21
-2.28755e-20
-5.05563e-20
-4.31156e-20
-6.98215e-20
-4.12442e-20
-4.68343e-20
-5.00227e-20
2.54145e-20
4.56628e-20
4.51191e-20
5.39434e-20
5.39703e-20
4.2756e-20
7.29906e-20
7.05014e-20
3.29879e-20
5.82393e-20
4.17367e-20
1.86779e-20
2.59319e-20
4.58945e-20
1.94767e-20
-4.48547e-21
-9.65349e-21
-1.39058e-20
-7.98808e-21
7.40181e-22
-2.0001e-20
-1.52917e-20
-4.93735e-20
-4.39223e-20
-1.71392e-20
-5.29491e-20
-5.51679e-20
-6.85044e-20
-8.60473e-20
-8.64648e-20
-9.27606e-20
-9.91188e-20
-9.61662e-20
-1.03656e-19
-1.05908e-19
-1.04425e-19
-9.51843e-20
-7.43e-20
-7.06818e-20
-4.81243e-20
)
;

boundaryField
{
    sides
    {
        type            calculated;
        value           uniform 0;
    }
    empty1
    {
        type            empty;
        value           nonuniform 0();
    }
    empty2
    {
        type            empty;
        value           nonuniform 0();
    }
}


// ************************************************************************* //
