/*--------------------------------*- C++ -*----------------------------------*\
| =========                 |                                                 |
| \\      /  F ield         | OpenFOAM: The Open Source CFD Toolbox           |
|  \\    /   O peration     | Version:  v1812                                 |
|   \\  /    A nd           | Web:      www.OpenFOAM.com                      |
|    \\/     M anipulation  |                                                 |
\*---------------------------------------------------------------------------*/
FoamFile
{
    version     2.0;
    format      ascii;
    class       volScalarField;
    location    "0.25";
    object      rho;
}
// * * * * * * * * * * * * * * * * * * * * * * * * * * * * * * * * * * * * * //

dimensions      [1 -3 0 0 0 0 0];


internalField   nonuniform List<scalar> 
800
(
0.999943
0.999943
0.999943
0.999943
0.999943
0.999943
0.999943
0.999943
0.999943
0.999943
0.999943
0.999943
0.999943
0.999943
0.999943
0.999943
0.999943
0.999943
0.999943
0.999943
0.999943
0.999943
0.999943
0.999943
0.999943
0.999943
0.999943
0.999943
0.999943
0.999943
0.999943
0.999943
0.999943
0.999943
0.999943
0.999943
0.999943
0.999943
0.999943
0.999943
0.999943
0.999943
0.999943
0.999943
0.999943
0.999943
0.999943
0.999943
0.999943
0.999943
0.999943
0.999943
0.999943
0.999943
0.999943
0.999943
0.999943
0.999943
0.999943
0.999943
0.999943
0.999943
0.999943
0.999943
0.999943
0.999943
0.999943
0.999943
0.999943
0.999943
0.999943
0.999943
0.999943
0.999943
0.999943
0.999943
0.999943
0.999943
0.999943
0.999943
0.999943
0.999943
0.999943
0.999943
0.999943
0.999943
0.999943
0.999943
0.999943
0.999943
0.999943
0.999943
0.999943
0.999943
0.999943
0.999943
0.999943
0.999943
0.999943
0.999943
0.999943
0.999943
0.999943
0.999943
0.999943
0.999943
0.999943
0.999943
0.999943
0.999943
0.999943
0.999943
0.999943
0.999943
0.999943
0.999943
0.999943
0.999943
0.999943
0.999943
0.999943
0.999943
0.999943
0.999943
0.999943
0.999943
0.999943
0.999943
0.999943
0.999943
0.999943
0.999943
0.999943
0.999942
0.99994
0.999937
0.999931
0.999923
0.999909
0.999887
0.999855
0.999807
0.999738
0.999642
0.999511
0.999337
0.999109
0.998819
0.998454
0.998006
0.997464
0.996819
0.996063
0.995191
0.994198
0.99308
0.991837
0.990468
0.988976
0.987364
0.985635
0.983795
0.981849
0.979804
0.977665
0.975438
0.973131
0.970749
0.968298
0.965785
0.963214
0.96059
0.957919
0.955205
0.952452
0.949663
0.946843
0.943995
0.941121
0.938224
0.935307
0.932373
0.929422
0.926458
0.923481
0.920494
0.917497
0.914493
0.911482
0.908466
0.905445
0.90242
0.899393
0.896364
0.893333
0.890302
0.887271
0.884241
0.881211
0.878184
0.875158
0.872135
0.869114
0.866097
0.863083
0.860073
0.857066
0.854065
0.851067
0.848074
0.845086
0.842104
0.839126
0.836154
0.833188
0.830227
0.827272
0.824323
0.82138
0.818444
0.815513
0.812589
0.809672
0.806761
0.803856
0.800959
0.798068
0.795184
0.792306
0.789436
0.786573
0.783716
0.780867
0.778025
0.77519
0.772362
0.769541
0.766727
0.763921
0.761122
0.75833
0.755546
0.752769
0.749999
0.747237
0.744482
0.741734
0.738994
0.736261
0.733536
0.730818
0.728107
0.725404
0.722709
0.720021
0.71734
0.714667
0.712001
0.709343
0.706692
0.704049
0.701413
0.698784
0.696163
0.69355
0.690944
0.688345
0.685754
0.68317
0.680594
0.678025
0.675463
0.672909
0.670363
0.667823
0.665291
0.662767
0.66025
0.65774
0.655238
0.652743
0.650255
0.647775
0.645302
0.642836
0.640377
0.637926
0.635482
0.633046
0.630616
0.628194
0.625779
0.623372
0.620971
0.618578
0.616192
0.613813
0.611441
0.609076
0.606719
0.604368
0.602025
0.599689
0.59736
0.595038
0.592723
0.590415
0.588114
0.58582
0.583533
0.581253
0.578979
0.576713
0.574454
0.572202
0.569956
0.567718
0.565486
0.563261
0.561043
0.558832
0.556628
0.55443
0.552239
0.550055
0.547878
0.545708
0.543544
0.541387
0.539236
0.537092
0.534955
0.532825
0.530701
0.528584
0.526473
0.524369
0.522272
0.520181
0.518097
0.516019
0.513947
0.511883
0.509824
0.507773
0.505727
0.503688
0.501656
0.49963
0.49761
0.495597
0.49359
0.491589
0.489595
0.487607
0.485625
0.48365
0.481681
0.479718
0.477761
0.47581
0.473865
0.471927
0.469994
0.468067
0.466146
0.464232
0.462322
0.460419
0.458521
0.456628
0.454741
0.452858
0.450981
0.449108
0.447239
0.445373
0.44351
0.441648
0.439785
0.43792
0.436054
0.434203
0.432419
0.430839
0.429719
0.429228
0.429139
0.429131
0.429152
0.429278
0.429644
0.430312
0.430927
0.431033
0.431005
0.43084
0.430513
0.430282
0.430287
0.430352
0.430577
0.430856
0.430908
0.430882
0.430764
0.430604
0.430571
0.430591
0.430675
0.430778
0.430785
0.43077
0.430724
0.430687
0.430688
0.430706
0.430731
0.430739
0.430737
0.430725
0.430715
0.430716
0.430721
0.430722
0.430721
0.430719
0.430718
0.430718
0.43072
0.430721
0.43072
0.430719
0.430718
0.430717
0.430716
0.430715
0.430713
0.430713
0.430713
0.430715
0.430716
0.430715
0.430714
0.430713
0.430711
0.43071
0.430709
0.430708
0.430706
0.430706
0.430706
0.430707
0.430707
0.430706
0.430704
0.430702
0.430702
0.430703
0.430704
0.430704
0.430703
0.430703
0.430702
0.4307
0.430697
0.430697
0.430697
0.430698
0.430699
0.430698
0.430696
0.430694
0.430693
0.430694
0.430694
0.430693
0.430691
0.430689
0.43069
0.43069
0.430689
0.430688
0.430687
0.430685
0.430684
0.430684
0.430684
0.430683
0.430682
0.430681
0.43068
0.430678
0.430677
0.430678
0.430677
0.430675
0.430674
0.430675
0.430674
0.430673
0.430672
0.430672
0.430672
0.430671
0.43067
0.430668
0.430667
0.430667
0.430667
0.430666
0.430664
0.430662
0.430661
0.430661
0.43066
0.430658
0.430655
0.430653
0.430653
0.430652
0.43065
0.430649
0.430647
0.430645
0.430645
0.430644
0.430641
0.430639
0.430639
0.430636
0.430633
0.43063
0.430629
0.430626
0.430623
0.430619
0.430617
0.430614
0.43061
0.430606
0.430604
0.4306
0.430596
0.430592
0.430589
0.430585
0.43058
0.430575
0.430571
0.430565
0.430558
0.430549
0.430539
0.430524
0.430504
0.430475
0.430434
0.430376
0.430293
0.430173
0.430005
0.429769
0.429444
0.428999
0.428401
0.427609
0.426573
0.425241
0.423554
0.42145
0.41887
0.415755
0.412057
0.407739
0.402781
0.397183
0.390968
0.384183
0.3769
0.369214
0.361234
0.353087
0.344905
0.336821
0.328964
0.32145
0.314381
0.307841
0.301891
0.296568
0.291891
0.287854
0.284435
0.281596
0.279286
0.277445
0.276011
0.27492
0.27411
0.273525
0.273114
0.272834
0.272649
0.272533
0.272463
0.272424
0.272404
0.272396
0.272395
0.272396
0.272398
0.272401
0.272404
0.272408
0.272412
0.272416
0.27242
0.272423
0.272426
0.272429
0.272432
0.272434
0.272437
0.272439
0.272441
0.272443
0.272445
0.272447
0.272448
0.27245
0.272451
0.272452
0.272454
0.272455
0.272456
0.272457
0.272458
0.272459
0.27246
0.272462
0.272463
0.272465
0.272466
0.272468
0.272469
0.272471
0.272473
0.272474
0.272476
0.272477
0.272479
0.27248
0.272481
0.272483
0.272484
0.272485
0.272486
0.272487
0.272488
0.272489
0.27249
0.272491
0.272492
0.272493
0.272494
0.272495
0.272496
0.272497
0.272498
0.272499
0.2725
0.272501
0.272502
0.272503
0.272504
0.272505
0.272506
0.272507
0.272509
0.27251
0.272511
0.272511
0.272512
0.272513
0.272515
0.272516
0.272517
0.272518
0.272518
0.272519
0.272521
0.272522
0.272523
0.272524
0.272525
0.272526
0.272527
0.272528
0.272529
0.27253
0.272531
0.272532
0.272533
0.272535
0.272536
0.272538
0.272538
0.272539
0.272541
0.272542
0.272544
0.272545
0.272546
0.272547
0.272548
0.27255
0.272552
0.272554
0.272555
0.272556
0.272557
0.272559
0.272561
0.272562
0.272562
0.27256
0.272556
0.272547
0.272527
0.272483
0.27239
0.272195
0.271793
0.270966
0.269269
0.265819
0.258892
0.24538
0.220912
0.182276
0.144466
0.128118
0.12515
0.124995
0.124993
0.124993
0.124993
0.124993
0.124993
0.124993
0.124993
0.124993
0.124993
0.124993
0.124993
0.124993
0.124993
0.124993
0.124993
0.124993
0.124993
0.124993
0.124993
0.124993
0.124993
0.124993
0.124993
0.124993
0.124993
0.124993
0.124993
0.124993
0.124993
0.124993
0.124993
0.124993
0.124993
0.124993
0.124993
0.124993
0.124993
0.124993
0.124993
0.124993
0.124993
0.124993
0.124993
0.124993
0.124993
0.124993
0.124993
0.124993
0.124993
0.124993
0.124993
0.124993
0.124993
0.124993
0.124993
)
;

boundaryField
{
    sides
    {
        type            calculated;
        value           nonuniform List<scalar> 2(0.124993 0.999943);
    }
    empty1
    {
        type            empty;
    }
    empty2
    {
        type            empty;
    }
}


// ************************************************************************* //
