/*--------------------------------*- C++ -*----------------------------------*\
| =========                 |                                                 |
| \\      /  F ield         | OpenFOAM: The Open Source CFD Toolbox           |
|  \\    /   O peration     | Version:  v1812                                 |
|   \\  /    A nd           | Web:      www.OpenFOAM.com                      |
|    \\/     M anipulation  |                                                 |
\*---------------------------------------------------------------------------*/
FoamFile
{
    version     2.0;
    format      ascii;
    class       volScalarField;
    location    "0.25";
    object      T;
}
// * * * * * * * * * * * * * * * * * * * * * * * * * * * * * * * * * * * * * //

dimensions      [0 0 0 1 0 0 0];


internalField   nonuniform List<scalar> 
800
(
2.5
2.5
2.5
2.5
2.5
2.5
2.5
2.5
2.5
2.5
2.5
2.5
2.5
2.5
2.5
2.5
2.5
2.5
2.5
2.5
2.5
2.5
2.5
2.5
2.5
2.5
2.5
2.5
2.5
2.5
2.5
2.5
2.5
2.5
2.5
2.5
2.5
2.5
2.5
2.5
2.5
2.5
2.5
2.5
2.5
2.5
2.5
2.5
2.5
2.5
2.5
2.5
2.5
2.5
2.5
2.5
2.5
2.5
2.5
2.5
2.5
2.5
2.5
2.5
2.5
2.5
2.5
2.5
2.5
2.5
2.5
2.5
2.5
2.5
2.5
2.5
2.5
2.5
2.5
2.5
2.5
2.5
2.5
2.5
2.5
2.5
2.5
2.5
2.5
2.5
2.5
2.5
2.5
2.5
2.5
2.5
2.5
2.5
2.5
2.5
2.5
2.5
2.5
2.5
2.5
2.5
2.5
2.5
2.5
2.5
2.5
2.5
2.5
2.5
2.5
2.5
2.5
2.5
2.5
2.5
2.5
2.5
2.5
2.5
2.5
2.5
2.5
2.5
2.5
2.5
2.5
2.5
2.5
2.5
2.5
2.49999
2.49999
2.49998
2.49997
2.49995
2.49993
2.49989
2.49983
2.49974
2.49963
2.49947
2.49927
2.49901
2.49868
2.49826
2.49776
2.49716
2.49645
2.49562
2.49468
2.49361
2.49241
2.49108
2.48963
2.48805
2.48636
2.48454
2.48262
2.48058
2.47845
2.47622
2.47391
2.47151
2.46904
2.46649
2.46388
2.46121
2.45849
2.45571
2.45289
2.45002
2.44712
2.44418
2.4412
2.4382
2.43517
2.43211
2.42903
2.42593
2.42281
2.41967
2.41651
2.41334
2.41016
2.40696
2.40375
2.40053
2.3973
2.39407
2.39082
2.38757
2.38431
2.38104
2.37777
2.37449
2.37121
2.36792
2.36463
2.36134
2.35804
2.35474
2.35144
2.34813
2.34483
2.34152
2.33821
2.3349
2.33158
2.32827
2.32495
2.32164
2.31832
2.31501
2.31169
2.30837
2.30505
2.30174
2.29842
2.2951
2.29179
2.28847
2.28516
2.28184
2.27853
2.27522
2.2719
2.26859
2.26528
2.26197
2.25866
2.25536
2.25205
2.24875
2.24544
2.24214
2.23884
2.23554
2.23224
2.22895
2.22565
2.22236
2.21907
2.21578
2.21249
2.2092
2.20592
2.20264
2.19935
2.19607
2.1928
2.18952
2.18625
2.18297
2.1797
2.17643
2.17317
2.1699
2.16664
2.16338
2.16012
2.15686
2.15361
2.15035
2.1471
2.14386
2.14061
2.13736
2.13412
2.13088
2.12764
2.12441
2.12117
2.11794
2.11471
2.11148
2.10826
2.10503
2.10181
2.09859
2.09538
2.09216
2.08895
2.08574
2.08253
2.07933
2.07612
2.07292
2.06972
2.06653
2.06333
2.06014
2.05695
2.05376
2.05058
2.04739
2.04421
2.04103
2.03786
2.03468
2.03151
2.02834
2.02517
2.02201
2.01885
2.01569
2.01253
2.00937
2.00622
2.00307
1.99992
1.99677
1.99363
1.99049
1.98735
1.98421
1.98108
1.97794
1.97481
1.97168
1.96856
1.96544
1.96231
1.9592
1.95608
1.95297
1.94985
1.94674
1.94364
1.94053
1.93743
1.93433
1.93123
1.92814
1.92504
1.92195
1.91886
1.91578
1.91269
1.90961
1.90653
1.90346
1.90038
1.89731
1.89424
1.89117
1.88811
1.88505
1.88199
1.87893
1.87587
1.87282
1.86977
1.86672
1.86367
1.86063
1.85758
1.85454
1.85151
1.84847
1.84544
1.8424
1.83937
1.83634
1.83332
1.83029
1.82727
1.82424
1.82122
1.8182
1.81517
1.81215
1.80913
1.8061
1.80306
1.80002
1.79696
1.7939
1.79085
1.78789
1.78528
1.78341
1.78267
1.78249
1.78249
1.78252
1.78274
1.78336
1.78449
1.78546
1.78563
1.78558
1.78531
1.78475
1.7844
1.78441
1.78452
1.78491
1.78535
1.78543
1.78539
1.78519
1.78493
1.78489
1.78493
1.78507
1.78523
1.78524
1.78521
1.78514
1.78508
1.78509
1.78512
1.78516
1.78518
1.78518
1.78516
1.78515
1.78515
1.78516
1.78516
1.78516
1.78515
1.78516
1.78516
1.78516
1.78517
1.78517
1.78517
1.78517
1.78517
1.78517
1.78517
1.78517
1.78517
1.78517
1.78518
1.78518
1.78518
1.78518
1.78518
1.78518
1.78518
1.78518
1.78518
1.78518
1.78518
1.78518
1.78519
1.78519
1.78519
1.78519
1.78519
1.78519
1.7852
1.7852
1.7852
1.7852
1.7852
1.78521
1.7852
1.7852
1.7852
1.78521
1.78521
1.78521
1.78522
1.78522
1.78522
1.78522
1.78522
1.78522
1.78523
1.78523
1.78523
1.78523
1.78524
1.78524
1.78524
1.78524
1.78524
1.78524
1.78525
1.78525
1.78525
1.78526
1.78526
1.78526
1.78527
1.78527
1.78527
1.78528
1.78528
1.78529
1.78529
1.7853
1.7853
1.7853
1.78531
1.78531
1.78532
1.78532
1.78532
1.78532
1.78533
1.78533
1.78534
1.78534
1.78535
1.78535
1.78536
1.78537
1.78537
1.78538
1.78538
1.78539
1.7854
1.7854
1.78541
1.78541
1.78542
1.78543
1.78544
1.78544
1.78545
1.78546
1.78547
1.78548
1.78549
1.7855
1.78551
1.78552
1.78553
1.78555
1.78556
1.78557
1.78559
1.7856
1.78562
1.78563
1.78565
1.78567
1.78568
1.7857
1.78572
1.78574
1.78577
1.7858
1.78583
1.78588
1.78594
1.78602
1.78614
1.78631
1.78656
1.7869
1.7874
1.7881
1.78908
1.79044
1.7923
1.7948
1.79813
1.8025
1.80814
1.81535
1.82441
1.83565
1.84941
1.86601
1.88577
1.90898
1.93589
1.96667
2.00141
2.04008
2.08256
2.12856
2.17768
2.22934
2.28285
2.33738
2.39202
2.4458
2.49777
2.54701
2.59272
2.63427
2.67122
2.70333
2.73059
2.75319
2.77146
2.78586
2.79692
2.80519
2.8112
2.81544
2.81833
2.82024
2.82145
2.82218
2.82259
2.8228
2.82289
2.82291
2.8229
2.82289
2.82287
2.82284
2.8228
2.82276
2.82273
2.8227
2.82267
2.82265
2.82262
2.8226
2.82258
2.82256
2.82255
2.82253
2.82252
2.82251
2.82249
2.82248
2.82247
2.82247
2.82246
2.82245
2.82245
2.82244
2.82244
2.82243
2.82243
2.82242
2.82242
2.82241
2.8224
2.82239
2.82238
2.82237
2.82236
2.82235
2.82234
2.82233
2.82232
2.82232
2.82231
2.82231
2.8223
2.8223
2.82229
2.82229
2.82229
2.82229
2.82229
2.82229
2.82228
2.82228
2.82228
2.82228
2.82228
2.82228
2.82228
2.82228
2.82228
2.82228
2.82228
2.82228
2.82228
2.82228
2.82228
2.82228
2.82228
2.82228
2.82229
2.82229
2.82229
2.82229
2.82229
2.82229
2.82229
2.82229
2.82229
2.82229
2.82229
2.8223
2.8223
2.8223
2.8223
2.8223
2.8223
2.82231
2.82231
2.82231
2.82231
2.82231
2.82231
2.82232
2.82232
2.82233
2.82233
2.82233
2.82233
2.82233
2.82234
2.82234
2.82235
2.82235
2.82235
2.82235
2.82236
2.82237
2.82237
2.82237
2.82237
2.82238
2.82238
2.82239
2.82239
2.82239
2.82238
2.82236
2.82232
2.82222
2.82202
2.8216
2.82072
2.8189
2.81511
2.80721
2.7906
2.75502
2.678
2.51577
2.24756
2.05049
2.00442
2.00015
2
2
2
2
2
2
2
2
2
2
2
2
2
2
2
2
2
2
2
2
2
2
2
2
2
2
2
2
2
2
2
2
2
2
2
2
2
2
2
2
2
2
2
2
2
2
2
2
2
2
2
2
2
2
2
2
)
;

boundaryField
{
    sides
    {
        type            zeroGradient;
    }
    empty1
    {
        type            empty;
    }
    empty2
    {
        type            empty;
    }
}


// ************************************************************************* //
