/*--------------------------------*- C++ -*----------------------------------*\
| =========                 |                                                 |
| \\      /  F ield         | OpenFOAM: The Open Source CFD Toolbox           |
|  \\    /   O peration     | Version:  v1812                                 |
|   \\  /    A nd           | Web:      www.OpenFOAM.com                      |
|    \\/     M anipulation  |                                                 |
\*---------------------------------------------------------------------------*/
FoamFile
{
    version     2.0;
    format      ascii;
    class       volVectorField;
    location    "0.25";
    object      U;
}
// * * * * * * * * * * * * * * * * * * * * * * * * * * * * * * * * * * * * * //

dimensions      [0 1 -1 0 0 0 0];


internalField   nonuniform List<vector> 
800
(
(2.43574e-17 0 0)
(4.90665e-16 0 0)
(4.1115e-16 0 0)
(7.83416e-16 0 0)
(2.26275e-16 0 0)
(3.1169e-16 0 0)
(4.14904e-18 0 0)
(4.21675e-16 0 0)
(6.85429e-16 0 0)
(5.72344e-16 0 0)
(5.00365e-16 0 0)
(4.90974e-16 0 0)
(2.17963e-16 0 0)
(4.76944e-16 0 0)
(-2.33471e-17 0 0)
(4.95115e-17 0 0)
(1.29164e-16 0 0)
(3.69782e-16 0 0)
(5.23634e-16 0 0)
(5.27954e-16 0 0)
(9.96767e-18 0 0)
(-2.49541e-17 0 0)
(1.05038e-16 0 0)
(-4.18297e-17 0 0)
(-5.19091e-16 0 0)
(-7.12346e-16 0 0)
(-2.46589e-16 0 0)
(2.56251e-17 0 0)
(4.85422e-16 0 0)
(8.84897e-16 0 0)
(2.66347e-16 0 0)
(3.79707e-16 0 0)
(3.25923e-16 0 0)
(9.66007e-16 0 0)
(1.62202e-15 0 0)
(2.03309e-15 0 0)
(2.19987e-15 0 0)
(2.20023e-15 0 0)
(1.84477e-15 0 0)
(1.90921e-15 0 0)
(1.92218e-15 0 0)
(2.19731e-15 0 0)
(2.22511e-15 0 0)
(2.34321e-15 0 0)
(1.82143e-15 0 0)
(2.50796e-15 0 0)
(1.94477e-15 0 0)
(2.15416e-15 0 0)
(2.90415e-15 0 0)
(3.05375e-15 0 0)
(3.02536e-15 0 0)
(3.11653e-15 0 0)
(2.27295e-15 0 0)
(2.32961e-15 0 0)
(2.66136e-15 0 0)
(2.8344e-15 0 0)
(3.08269e-15 0 0)
(3.18649e-15 0 0)
(3.12159e-15 0 0)
(2.89286e-15 0 0)
(2.60135e-15 0 0)
(2.55442e-15 0 0)
(2.66854e-15 0 0)
(2.71641e-15 0 0)
(2.67535e-15 0 0)
(2.48188e-15 0 0)
(1.52235e-15 0 0)
(1.78574e-15 0 0)
(1.47198e-15 0 0)
(2.11223e-15 0 0)
(1.6864e-15 0 0)
(2.18443e-15 0 0)
(2.42853e-15 0 0)
(2.06653e-15 0 0)
(2.30205e-15 0 0)
(2.06407e-15 0 0)
(2.662e-15 0 0)
(1.96012e-15 0 0)
(2.40563e-15 0 0)
(2.80269e-15 0 0)
(2.43532e-15 0 0)
(2.45417e-15 0 0)
(2.44046e-15 0 0)
(2.14195e-15 0 0)
(2.00816e-15 0 0)
(2.15682e-15 0 0)
(2.00449e-15 0 0)
(1.73027e-15 0 0)
(1.84775e-15 0 0)
(1.94681e-15 0 0)
(1.90795e-15 0 0)
(2.0084e-15 0 0)
(1.76444e-15 0 0)
(1.80309e-15 0 0)
(1.50555e-15 0 0)
(1.25801e-15 0 0)
(1.05066e-15 0 0)
(1.86951e-16 0 0)
(1.24638e-16 0 0)
(1.72012e-16 0 0)
(4.90516e-16 0 0)
(1.42397e-15 0 0)
(5.40592e-15 0 0)
(1.63796e-14 0 0)
(3.61893e-14 0 0)
(6.1597e-14 0 0)
(8.95991e-14 0 0)
(1.19031e-13 0 0)
(1.48375e-13 0 0)
(1.77183e-13 0 0)
(2.05661e-13 0 0)
(2.33686e-13 0 0)
(2.6086e-13 0 0)
(2.87611e-13 0 0)
(3.13449e-13 0 0)
(3.37976e-13 0 0)
(3.62523e-13 0 0)
(3.8849e-13 0 0)
(4.20986e-13 0 0)
(4.78648e-13 0 0)
(6.71825e-13 0 0)
(1.79944e-12 0 0)
(1.16489e-11 0 0)
(7.91385e-11 0 0)
(3.76852e-10 0 0)
(1.46212e-09 0 0)
(4.87809e-09 0 0)
(1.44992e-08 0 0)
(3.92679e-08 0 0)
(9.84145e-08 0 0)
(2.3083e-07 0 0)
(5.10966e-07 0 0)
(1.07446e-06 0 0)
(2.15734e-06 0 0)
(4.15328e-06 0 0)
(7.69297e-06 0 0)
(1.37491e-05 0 0)
(2.37681e-05 0 0)
(3.98256e-05 0 0)
(6.48006e-05 0 0)
(0.000102553 0 0)
(0.000158092 0 0)
(0.000237705 0 0)
(0.000349035 0 0)
(0.000501076 0 0)
(0.00070407 0 0)
(0.000969305 0 0)
(0.00130881 0 0)
(0.00173499 0 0)
(0.00226014 0 0)
(0.00289605 0 0)
(0.00365353 0 0)
(0.00454203 0 0)
(0.00556936 0 0)
(0.00674145 0 0)
(0.0080623 0 0)
(0.00953392 0 0)
(0.0111565 0 0)
(0.0129285 0 0)
(0.0148469 0 0)
(0.0169074 0 0)
(0.0191048 0 0)
(0.021433 0 0)
(0.0238855 0 0)
(0.0264553 0 0)
(0.0291354 0 0)
(0.0319189 0 0)
(0.0347986 0 0)
(0.0377679 0 0)
(0.0408203 0 0)
(0.0439497 0 0)
(0.0471502 0 0)
(0.0504164 0 0)
(0.0537432 0 0)
(0.0571258 0 0)
(0.06056 0 0)
(0.0640416 0 0)
(0.067567 0 0)
(0.0711327 0 0)
(0.0747356 0 0)
(0.0783729 0 0)
(0.0820418 0 0)
(0.08574 0 0)
(0.0894653 0 0)
(0.0932156 0 0)
(0.0969892 0 0)
(0.100784 0 0)
(0.104599 0 0)
(0.108433 0 0)
(0.112284 0 0)
(0.116151 0 0)
(0.120033 0 0)
(0.123929 0 0)
(0.127838 0 0)
(0.13176 0 0)
(0.135692 0 0)
(0.139636 0 0)
(0.143589 0 0)
(0.147552 0 0)
(0.151524 0 0)
(0.155504 0 0)
(0.159492 0 0)
(0.163488 0 0)
(0.16749 0 0)
(0.171499 0 0)
(0.175515 0 0)
(0.179536 0 0)
(0.183563 0 0)
(0.187595 0 0)
(0.191632 0 0)
(0.195674 0 0)
(0.19972 0 0)
(0.203771 0 0)
(0.207825 0 0)
(0.211884 0 0)
(0.215947 0 0)
(0.220013 0 0)
(0.224082 0 0)
(0.228154 0 0)
(0.23223 0 0)
(0.236309 0 0)
(0.24039 0 0)
(0.244474 0 0)
(0.248561 0 0)
(0.25265 0 0)
(0.256742 0 0)
(0.260835 0 0)
(0.264932 0 0)
(0.26903 0 0)
(0.27313 0 0)
(0.277232 0 0)
(0.281336 0 0)
(0.285442 0 0)
(0.289549 0 0)
(0.293658 0 0)
(0.297769 0 0)
(0.301881 0 0)
(0.305995 0 0)
(0.310111 0 0)
(0.314227 0 0)
(0.318345 0 0)
(0.322464 0 0)
(0.326585 0 0)
(0.330707 0 0)
(0.33483 0 0)
(0.338954 0 0)
(0.343079 0 0)
(0.347205 0 0)
(0.351333 0 0)
(0.355461 0 0)
(0.35959 0 0)
(0.36372 0 0)
(0.367851 0 0)
(0.371983 0 0)
(0.376116 0 0)
(0.38025 0 0)
(0.384384 0 0)
(0.38852 0 0)
(0.392656 0 0)
(0.396792 0 0)
(0.40093 0 0)
(0.405068 0 0)
(0.409207 0 0)
(0.413346 0 0)
(0.417487 0 0)
(0.421627 0 0)
(0.425769 0 0)
(0.429911 0 0)
(0.434053 0 0)
(0.438197 0 0)
(0.44234 0 0)
(0.446485 0 0)
(0.450629 0 0)
(0.454775 0 0)
(0.45892 0 0)
(0.463067 0 0)
(0.467213 0 0)
(0.471361 0 0)
(0.475508 0 0)
(0.479657 0 0)
(0.483805 0 0)
(0.487954 0 0)
(0.492104 0 0)
(0.496253 0 0)
(0.500404 0 0)
(0.504554 0 0)
(0.508705 0 0)
(0.512857 0 0)
(0.517009 0 0)
(0.521161 0 0)
(0.525314 0 0)
(0.529466 0 0)
(0.53362 0 0)
(0.537773 0 0)
(0.541927 0 0)
(0.546082 0 0)
(0.550236 0 0)
(0.554391 0 0)
(0.558547 0 0)
(0.562702 0 0)
(0.566858 0 0)
(0.571015 0 0)
(0.575171 0 0)
(0.579328 0 0)
(0.583486 0 0)
(0.587643 0 0)
(0.591801 0 0)
(0.595959 0 0)
(0.600118 0 0)
(0.604277 0 0)
(0.608436 0 0)
(0.612595 0 0)
(0.616755 0 0)
(0.620915 0 0)
(0.625075 0 0)
(0.629236 0 0)
(0.633397 0 0)
(0.637558 0 0)
(0.64172 0 0)
(0.645882 0 0)
(0.650044 0 0)
(0.654206 0 0)
(0.658369 0 0)
(0.662532 0 0)
(0.666696 0 0)
(0.670859 0 0)
(0.675023 0 0)
(0.679188 0 0)
(0.683352 0 0)
(0.687517 0 0)
(0.691682 0 0)
(0.695848 0 0)
(0.700014 0 0)
(0.70418 0 0)
(0.708346 0 0)
(0.712513 0 0)
(0.71668 0 0)
(0.720847 0 0)
(0.725015 0 0)
(0.729183 0 0)
(0.733351 0 0)
(0.737519 0 0)
(0.741688 0 0)
(0.745857 0 0)
(0.750026 0 0)
(0.754196 0 0)
(0.758366 0 0)
(0.762536 0 0)
(0.766706 0 0)
(0.770877 0 0)
(0.775048 0 0)
(0.77922 0 0)
(0.783392 0 0)
(0.787564 0 0)
(0.791736 0 0)
(0.795909 0 0)
(0.800082 0 0)
(0.804256 0 0)
(0.80843 0 0)
(0.812605 0 0)
(0.81678 0 0)
(0.820956 0 0)
(0.825133 0 0)
(0.82931 0 0)
(0.833488 0 0)
(0.837667 0 0)
(0.841847 0 0)
(0.846029 0 0)
(0.850211 0 0)
(0.854395 0 0)
(0.858582 0 0)
(0.86277 0 0)
(0.866961 0 0)
(0.871155 0 0)
(0.875353 0 0)
(0.879556 0 0)
(0.883765 0 0)
(0.887983 0 0)
(0.892214 0 0)
(0.89646 0 0)
(0.900725 0 0)
(0.905006 0 0)
(0.90927 0 0)
(0.913396 0 0)
(0.917066 0 0)
(0.919645 0 0)
(0.920797 0 0)
(0.920972 0 0)
(0.92102 0 0)
(0.920975 0 0)
(0.920687 0 0)
(0.919826 0 0)
(0.91823 0 0)
(0.91683 0 0)
(0.916579 0 0)
(0.916644 0 0)
(0.91704 0 0)
(0.917841 0 0)
(0.918305 0 0)
(0.918337 0 0)
(0.918189 0 0)
(0.917644 0 0)
(0.917008 0 0)
(0.916884 0 0)
(0.916948 0 0)
(0.917238 0 0)
(0.917607 0 0)
(0.917683 0 0)
(0.917635 0 0)
(0.917426 0 0)
(0.917198 0 0)
(0.917172 0 0)
(0.917208 0 0)
(0.917322 0 0)
(0.917405 0 0)
(0.917399 0 0)
(0.917355 0 0)
(0.917295 0 0)
(0.917278 0 0)
(0.917283 0 0)
(0.917312 0 0)
(0.917335 0 0)
(0.917333 0 0)
(0.917318 0 0)
(0.917318 0 0)
(0.91732 0 0)
(0.917325 0 0)
(0.917328 0 0)
(0.917326 0 0)
(0.917321 0 0)
(0.917321 0 0)
(0.917322 0 0)
(0.917327 0 0)
(0.917331 0 0)
(0.917334 0 0)
(0.917337 0 0)
(0.917341 0 0)
(0.917345 0 0)
(0.917346 0 0)
(0.917345 0 0)
(0.917341 0 0)
(0.917338 0 0)
(0.917339 0 0)
(0.917341 0 0)
(0.917345 0 0)
(0.917348 0 0)
(0.917349 0 0)
(0.91735 0 0)
(0.917353 0 0)
(0.917356 0 0)
(0.917358 0 0)
(0.917357 0 0)
(0.917355 0 0)
(0.917355 0 0)
(0.917356 0 0)
(0.917361 0 0)
(0.917365 0 0)
(0.917365 0 0)
(0.917362 0 0)
(0.91736 0 0)
(0.917361 0 0)
(0.917362 0 0)
(0.917363 0 0)
(0.917364 0 0)
(0.917369 0 0)
(0.917375 0 0)
(0.917378 0 0)
(0.917376 0 0)
(0.917372 0 0)
(0.917373 0 0)
(0.917374 0 0)
(0.917377 0 0)
(0.917381 0 0)
(0.917384 0 0)
(0.917382 0 0)
(0.917382 0 0)
(0.917383 0 0)
(0.917388 0 0)
(0.917391 0 0)
(0.917389 0 0)
(0.917389 0 0)
(0.91739 0 0)
(0.917391 0 0)
(0.917394 0 0)
(0.917397 0 0)
(0.917399 0 0)
(0.9174 0 0)
(0.917399 0 0)
(0.9174 0 0)
(0.917401 0 0)
(0.917404 0 0)
(0.917406 0 0)
(0.917408 0 0)
(0.917409 0 0)
(0.917408 0 0)
(0.917409 0 0)
(0.91741 0 0)
(0.917412 0 0)
(0.91741 0 0)
(0.917411 0 0)
(0.917412 0 0)
(0.917412 0 0)
(0.917411 0 0)
(0.917411 0 0)
(0.917412 0 0)
(0.917414 0 0)
(0.917416 0 0)
(0.917418 0 0)
(0.917417 0 0)
(0.917416 0 0)
(0.917417 0 0)
(0.917418 0 0)
(0.917421 0 0)
(0.917423 0 0)
(0.91742 0 0)
(0.917421 0 0)
(0.917423 0 0)
(0.917427 0 0)
(0.91743 0 0)
(0.917429 0 0)
(0.917429 0 0)
(0.917431 0 0)
(0.917432 0 0)
(0.917434 0 0)
(0.917437 0 0)
(0.917435 0 0)
(0.917436 0 0)
(0.917439 0 0)
(0.917442 0 0)
(0.91744 0 0)
(0.917441 0 0)
(0.917444 0 0)
(0.917447 0 0)
(0.917445 0 0)
(0.917446 0 0)
(0.917449 0 0)
(0.917452 0 0)
(0.91745 0 0)
(0.91745 0 0)
(0.917453 0 0)
(0.917456 0 0)
(0.917454 0 0)
(0.917455 0 0)
(0.917457 0 0)
(0.91746 0 0)
(0.917458 0 0)
(0.917459 0 0)
(0.917461 0 0)
(0.917465 0 0)
(0.917463 0 0)
(0.917463 0 0)
(0.917466 0 0)
(0.91747 0 0)
(0.917468 0 0)
(0.917469 0 0)
(0.917471 0 0)
(0.917474 0 0)
(0.917474 0 0)
(0.917475 0 0)
(0.917476 0 0)
(0.917478 0 0)
(0.917479 0 0)
(0.91748 0 0)
(0.917482 0 0)
(0.917483 0 0)
(0.917485 0 0)
(0.917487 0 0)
(0.917489 0 0)
(0.917492 0 0)
(0.917495 0 0)
(0.9175 0 0)
(0.917507 0 0)
(0.917516 0 0)
(0.917527 0 0)
(0.917543 0 0)
(0.917562 0 0)
(0.917585 0 0)
(0.917614 0 0)
(0.917646 0 0)
(0.917683 0 0)
(0.917723 0 0)
(0.917765 0 0)
(0.917807 0 0)
(0.917848 0 0)
(0.917885 0 0)
(0.917919 0 0)
(0.917947 0 0)
(0.91797 0 0)
(0.917985 0 0)
(0.917995 0 0)
(0.918005 0 0)
(0.918005 0 0)
(0.918005 0 0)
(0.918006 0 0)
(0.918005 0 0)
(0.918003 0 0)
(0.918003 0 0)
(0.918002 0 0)
(0.918003 0 0)
(0.918004 0 0)
(0.918005 0 0)
(0.918006 0 0)
(0.918008 0 0)
(0.91801 0 0)
(0.918012 0 0)
(0.918013 0 0)
(0.918015 0 0)
(0.918017 0 0)
(0.918019 0 0)
(0.918021 0 0)
(0.918023 0 0)
(0.918024 0 0)
(0.918026 0 0)
(0.918028 0 0)
(0.91803 0 0)
(0.918032 0 0)
(0.918034 0 0)
(0.918036 0 0)
(0.918038 0 0)
(0.918041 0 0)
(0.918043 0 0)
(0.918045 0 0)
(0.918047 0 0)
(0.918049 0 0)
(0.918051 0 0)
(0.918053 0 0)
(0.918056 0 0)
(0.918058 0 0)
(0.91806 0 0)
(0.918062 0 0)
(0.918064 0 0)
(0.918066 0 0)
(0.918068 0 0)
(0.91807 0 0)
(0.918072 0 0)
(0.918074 0 0)
(0.918076 0 0)
(0.918078 0 0)
(0.918081 0 0)
(0.918083 0 0)
(0.918085 0 0)
(0.918087 0 0)
(0.918089 0 0)
(0.918091 0 0)
(0.918094 0 0)
(0.918096 0 0)
(0.918098 0 0)
(0.9181 0 0)
(0.918102 0 0)
(0.918105 0 0)
(0.918108 0 0)
(0.91811 0 0)
(0.918112 0 0)
(0.918115 0 0)
(0.918117 0 0)
(0.91812 0 0)
(0.918123 0 0)
(0.918126 0 0)
(0.918128 0 0)
(0.918131 0 0)
(0.918134 0 0)
(0.918137 0 0)
(0.91814 0 0)
(0.918143 0 0)
(0.918147 0 0)
(0.91815 0 0)
(0.918152 0 0)
(0.918155 0 0)
(0.918159 0 0)
(0.918163 0 0)
(0.918166 0 0)
(0.91817 0 0)
(0.918173 0 0)
(0.918175 0 0)
(0.918179 0 0)
(0.918183 0 0)
(0.918187 0 0)
(0.918191 0 0)
(0.918194 0 0)
(0.918197 0 0)
(0.9182 0 0)
(0.918204 0 0)
(0.918208 0 0)
(0.918212 0 0)
(0.918216 0 0)
(0.918218 0 0)
(0.918222 0 0)
(0.918225 0 0)
(0.91823 0 0)
(0.918235 0 0)
(0.918238 0 0)
(0.918241 0 0)
(0.918244 0 0)
(0.918248 0 0)
(0.918253 0 0)
(0.918258 0 0)
(0.918262 0 0)
(0.918266 0 0)
(0.918268 0 0)
(0.918272 0 0)
(0.918277 0 0)
(0.918283 0 0)
(0.918288 0 0)
(0.918292 0 0)
(0.918296 0 0)
(0.918299 0 0)
(0.918304 0 0)
(0.918311 0 0)
(0.918317 0 0)
(0.918323 0 0)
(0.918326 0 0)
(0.91833 0 0)
(0.918335 0 0)
(0.918342 0 0)
(0.91835 0 0)
(0.918357 0 0)
(0.918361 0 0)
(0.918364 0 0)
(0.918369 0 0)
(0.918377 0 0)
(0.918386 0 0)
(0.918394 0 0)
(0.918399 0 0)
(0.918401 0 0)
(0.918403 0 0)
(0.918401 0 0)
(0.918398 0 0)
(0.918384 0 0)
(0.918339 0 0)
(0.918238 0 0)
(0.918025 0 0)
(0.917584 0 0)
(0.916667 0 0)
(0.914766 0 0)
(0.910832 0 0)
(0.902716 0 0)
(0.88604 0 0)
(0.851743 0 0)
(0.782059 0 0)
(0.644265 0 0)
(0.40963 0 0)
(0.144198 0 0)
(0.0217971 0 0)
(0.00146797 0 0)
(2.23596e-05 0 0)
(6.42242e-08 0 0)
(3.76769e-11 0 0)
(1.11399e-15 0 0)
(-1.71634e-17 0 0)
(-7.17583e-17 0 0)
(3.90508e-17 0 0)
(-1.69639e-16 0 0)
(-1.8323e-16 0 0)
(-9.91112e-16 0 0)
(-8.06731e-16 0 0)
(-1.18658e-15 0 0)
(-1.20815e-15 0 0)
(-9.28133e-16 0 0)
(-9.0128e-16 0 0)
(-1.04781e-17 0 0)
(7.07738e-16 0 0)
(9.74292e-16 0 0)
(8.74637e-16 0 0)
(1.23916e-15 0 0)
(9.19775e-16 0 0)
(1.45993e-15 0 0)
(1.45321e-15 0 0)
(7.48352e-16 0 0)
(1.19654e-15 0 0)
(8.59123e-16 0 0)
(5.31944e-16 0 0)
(4.35176e-16 0 0)
(6.90286e-16 0 0)
(7.76028e-16 0 0)
(-4.15405e-17 0 0)
(-6.65101e-17 0 0)
(-3.05713e-16 0 0)
(-3.02524e-16 0 0)
(-1.05144e-16 0 0)
(-8.97705e-17 0 0)
(-3.536e-16 0 0)
(-6.63913e-16 0 0)
(-8.61266e-16 0 0)
(-6.71203e-16 0 0)
(-6.96444e-16 0 0)
(-1.0043e-15 0 0)
(-1.39439e-15 0 0)
(-1.20464e-15 0 0)
(-1.70122e-15 0 0)
(-1.93389e-15 0 0)
(-1.94699e-15 0 0)
(-2.03775e-15 0 0)
(-1.8798e-15 0 0)
(-2.11887e-15 0 0)
(-2.19497e-15 0 0)
(-1.82101e-15 0 0)
(-1.76982e-15 0 0)
(-1.49843e-15 0 0)
(-1.22016e-15 0 0)
(-5.32255e-16 0 0)
)
;

boundaryField
{
    sides
    {
        type            fixedValue;
        value           uniform (0 0 0);
    }
    empty1
    {
        type            empty;
    }
    empty2
    {
        type            empty;
    }
}


// ************************************************************************* //
