/*--------------------------------*- C++ -*----------------------------------*\
| =========                 |                                                 |
| \\      /  F ield         | OpenFOAM: The Open Source CFD Toolbox           |
|  \\    /   O peration     | Version:  v1812                                 |
|   \\  /    A nd           | Web:      www.OpenFOAM.com                      |
|    \\/     M anipulation  |                                                 |
\*---------------------------------------------------------------------------*/
FoamFile
{
    version     2.0;
    format      ascii;
    class       volScalarField;
    location    "0.5";
    object      p;
}
// * * * * * * * * * * * * * * * * * * * * * * * * * * * * * * * * * * * * * //

dimensions      [1 -1 -2 0 0 0 0];


internalField   nonuniform List<scalar> 
20400
(
95954
95954.3
95954.5
95954.7
95953.9
95953
95950.9
95949.2
95946.6
95945.4
95944.3
95943.9
95943.9
95944.2
95944.5
95944.8
95944.6
95944.2
95942.8
95940.7
95937.9
95933.4
95928.4
95921.9
95914.6
95905.8
95896.1
95885.9
95875.4
95866
95856.7
95850.9
95845.8
95845.7
95850.4
95859.1
95874.6
95893.6
95922.1
95950.5
95985.4
96021
96058
96094.6
96127.7
96160.1
96182.2
96206
96225
96241.5
96255
96265.2
96273.5
96279
96284
96286.1
96287.8
96287.3
96285.1
96278.7
96272.7
96251.3
96238.9
96225.2
96204.3
96183.2
96158.5
96132.7
96104
96077.5
96052.2
96030.5
96011.4
95996.6
95986
95979.6
95981
95988.2
96002
96020.1
96047.6
96076.1
96112.1
96148.7
96190.1
96230.7
96273
96312.1
96352
96388.3
96414.8
96442.7
96469.3
96491.9
96512.5
96529.4
96542.4
96551.9
96557.7
96561.2
96561.8
96559.9
96556.5
96551.3
96544.8
96537.2
96528.6
96519.1
96509.3
96499.3
96489.6
96479.4
96469.4
96459.6
96450.2
96441.3
96433
96425.1
96417.6
96410.5
96403.6
96396.7
96389.7
96382.6
96375.4
96368.2
96361.2
96354.5
96348.4
96343
96338.5
96335
96332.5
96331.2
96330.4
96330.4
96330.9
96332
96333.5
96335.4
96337.7
96340.4
96343.5
96347
96350.9
96355.3
96360.3
96365.8
96371.8
96378.3
96385.4
96392.9
96400.9
96409.3
96418.2
96427.2
96436.6
96446.1
96455.8
96465.6
96475.4
96485.2
96495
96504.6
96514.1
96523.5
96532.7
96541.6
96550.4
96558.8
96567
96574.9
96582.6
96589.9
96597
96603.7
96610.2
96616.5
96622.5
96628.3
96633.8
96639.2
96644.4
96649.4
96654.4
96659.2
96663.9
96668.5
96673.1
96677.7
96682.2
96686.8
96691.4
96696
96700.6
96705.3
96710.1
96715
96719.9
96725
96730.2
96735.4
96740.8
96746.3
96752
96757.8
96763.7
96769.7
96775.9
96782.2
96788.6
96795.2
96801.9
96808.8
96815.8
96823
96830.3
96837.7
96845.3
96853.1
96861
96869
96877.2
96885.6
96894.1
96902.8
96911.6
96920.7
96929.8
96939.2
96948.7
96958.4
96968.2
96978.2
96988.4
96998.8
97009.3
97020
97030.9
97042
97053.2
97064.7
97076.3
97088.1
97100
97112.2
97124.5
97137
97149.7
97162.6
97175.7
97189
97202.4
97216
97229.8
97243.8
97258
97272.3
97286.9
97301.6
97316.5
97331.6
97346.8
97362.3
97377.9
97393.7
97409.6
97425.8
97442.1
97458.6
97475.3
97492.1
97509.1
97526.3
97543.6
97561.1
97578.8
97596.6
97614.6
97632.8
97651.1
97669.5
97688.1
97706.9
97725.8
97744.9
97764.1
97783.4
97802.9
97822.5
97842.2
97862.1
97882.1
97902.3
97922.5
97942.9
97963.4
97984
98004.8
98025.6
98046.6
98067.6
98088.8
98110.1
98131.4
98152.9
98174.4
98196.1
98217.8
98239.6
98261.5
98283.4
98305.5
98327.6
98349.7
98372
98394.2
98416.6
98439
98461.5
98484
98506.5
98529.1
98551.7
98574.4
98597.1
98619.8
98642.6
98665.4
98688.2
98711
98733.8
98756.7
98779.5
98802.4
98825.2
98848.1
98870.9
98893.7
98916.6
98939.4
98962.2
98984.9
99007.7
99030.4
99053.1
99075.8
99098.4
99121
99143.5
99166
99188.5
99210.9
99233.3
99255.6
99277.8
99300
99322.1
99344.2
99366.2
99388.1
99409.9
99431.7
99453.4
99475
99496.5
99518
99539.3
99560.6
99581.8
99602.9
99623.9
99644.7
99665.5
99686.2
99706.8
99727.3
99747.7
99767.9
99788.1
99808.1
99828
99847.8
99867.5
99887.1
99906.5
99925.8
99945
99964.1
99983.1
100002
100021
100039
100058
100076
100094
100112
100130
100148
100165
100183
100200
100217
100234
100251
100268
100285
100301
100317
100334
100350
100366
100381
100397
100412
100428
100443
100458
100473
100488
100502
100517
100531
100545
100559
100573
100587
100601
100614
100627
100641
100654
100667
100679
100692
100705
100717
100729
100742
100754
100765
100777
100789
100800
100812
100823
100834
100845
100856
100867
100878
100888
100899
100909
100919
100930
100940
100950
100960
100969
100979
100989
100998
101008
101017
101027
101036
101045
101054
101063
101072
101081
101090
101099
101108
101116
101125
101134
101142
101151
101160
101168
101177
101185
101194
101202
101211
101219
101227
101236
101244
101253
101261
101270
101278
101287
101295
101304
101312
101321
95953.7
95954
95954.1
95954
95953
95951.8
95950.1
95948
95946.5
95944.6
95944.1
95943.9
95944.2
95944.7
95945.2
95945.8
95945.9
95945.6
95944.4
95942.4
95939.4
95935.2
95929.9
95923
95914.9
95905.8
95896
95885.8
95874.7
95864.5
95854.4
95847.8
95841.8
95841.1
95845
95853.3
95868.9
95888.2
95914.7
95943.8
95977.4
96012.6
96049
96084.9
96119.8
96151
96183.7
96207.5
96228.7
96245.4
96258.8
96268.2
96275.5
96280.1
96284.1
96287
96288.6
96288.1
96285.2
96279.7
96275.1
96265.1
96253.8
96230.3
96208.7
96183.4
96156.2
96127.2
96098.8
96070.5
96043.5
96019.3
95999
95984.4
95976.3
95973.8
95979.6
95985.3
95997
96012
96033.3
96058.7
96089.3
96123.1
96160
96200.1
96241.7
96285.6
96326.2
96365.7
96407.8
96442.7
96470.8
96495
96513.4
96528.5
96540.2
96549.1
96554.8
96558.3
96559
96557.4
96554.2
96549.1
96542.8
96535.3
96526.9
96517.6
96508
96498.4
96489
96478.9
96468.4
96458.9
96449.6
96441.1
96433.1
96425.6
96418.4
96411.5
96404.8
96398
96391.2
96384.1
96376.8
96369.5
96362.3
96355.4
96349
96343.3
96338.6
96334.7
96331.9
96329.9
96329.1
96329.2
96329.9
96331.1
96332.6
96334.6
96336.9
96339.6
96342.6
96346
96349.9
96354.3
96359.2
96364.7
96370.6
96377.3
96384.4
96392.1
96400.2
96408.7
96417.6
96426.9
96436.3
96446
96455.8
96465.7
96475.5
96485.4
96495.2
96504.9
96514.5
96523.9
96533.1
96542.1
96550.9
96559.3
96567.5
96575.5
96583.1
96590.4
96597.5
96604.2
96610.7
96616.9
96622.9
96628.7
96634.2
96639.6
96644.7
96649.7
96654.6
96659.4
96664.1
96668.7
96673.3
96677.8
96682.4
96686.9
96691.5
96696
96700.7
96705.4
96710.1
96715
96719.9
96725
96730.1
96735.4
96740.8
96746.3
96751.9
96757.7
96763.6
96769.6
96775.8
96782.1
96788.6
96795.1
96801.9
96808.7
96815.8
96822.9
96830.2
96837.7
96845.3
96853
96860.9
96869
96877.2
96885.6
96894.1
96902.8
96911.6
96920.6
96929.8
96939.1
96948.6
96958.3
96968.2
96978.2
96988.4
96998.7
97009.3
97020
97030.9
97041.9
97053.2
97064.6
97076.2
97088
97100
97112.1
97124.5
97137
97149.7
97162.6
97175.6
97188.9
97202.3
97215.9
97229.7
97243.7
97257.9
97272.3
97286.8
97301.5
97316.4
97331.5
97346.7
97362.2
97377.8
97393.6
97409.5
97425.7
97442
97458.5
97475.2
97492
97509
97526.2
97543.5
97561
97578.7
97596.5
97614.5
97632.6
97650.9
97669.4
97688
97706.7
97725.6
97744.7
97763.9
97783.2
97802.7
97822.3
97842.1
97861.9
97882
97902.1
97922.4
97942.7
97963.2
97983.9
98004.6
98025.4
98046.4
98067.5
98088.6
98109.9
98131.2
98152.7
98174.2
98195.9
98217.6
98239.4
98261.3
98283.2
98305.3
98327.4
98349.5
98371.8
98394.1
98416.4
98438.8
98461.3
98483.8
98506.3
98528.9
98551.6
98574.2
98596.9
98619.7
98642.4
98665.2
98688
98710.8
98733.6
98756.5
98779.3
98802.2
98825
98847.9
98870.7
98893.6
98916.4
98939.2
98962
98984.8
99007.5
99030.2
99052.9
99075.6
99098.2
99120.8
99143.3
99165.9
99188.3
99210.7
99233.1
99255.4
99277.6
99299.8
99321.9
99344
99366
99387.9
99409.7
99431.5
99453.2
99474.8
99496.4
99517.8
99539.2
99560.4
99581.6
99602.7
99623.7
99644.6
99665.4
99686.1
99706.6
99727.1
99747.5
99767.7
99787.9
99807.9
99827.9
99847.7
99867.3
99886.9
99906.4
99925.7
99944.9
99964
99982.9
100002
100020
100039
100057
100076
100094
100112
100130
100148
100165
100183
100200
100217
100234
100251
100268
100284
100301
100317
100334
100350
100365
100381
100397
100412
100428
100443
100458
100473
100488
100502
100517
100531
100545
100559
100573
100587
100601
100614
100627
100641
100654
100667
100679
100692
100705
100717
100729
100741
100753
100765
100777
100789
100800
100812
100823
100834
100845
100856
100867
100878
100888
100899
100909
100919
100930
100940
100950
100960
100969
100979
100989
100998
101008
101017
101027
101036
101045
101054
101063
101072
101081
101090
101099
101108
101116
101125
101134
101142
101151
101160
101168
101177
101185
101194
101202
101211
101219
101227
101236
101244
101253
101261
101270
101278
101287
101295
101304
101312
101321
95953.5
95953.8
95953.9
95953.8
95952.5
95951.1
95948.7
95946.8
95944.9
95943.6
95942.7
95942.8
95943.6
95944.5
95945.3
95946
95946.3
95946
95945
95943.4
95940.8
95937.1
95932.3
95926
95918.3
95908.8
95897.9
95885.9
95873.1
95860.8
95848.9
95839.5
95832.5
95829.4
95832.2
95840.3
95854.5
95874.6
95900.3
95930.9
95965.5
96002.8
96041.4
96079.5
96116.1
96149.3
96179
96204.8
96225.7
96241.6
96255.1
96265.1
96275.3
96280.3
96289.6
96287.1
96291.1
96291.6
96291.1
96286.6
96276.8
96262.9
96248.1
96229.8
96208
96181.1
96152.6
96122.6
96093.6
96066.7
96042.3
96021.3
96003
95988.4
95976
95966.6
95962.2
95971.1
95984.9
96006.3
96031.6
96061.5
96095.7
96133
96173.1
96213.9
96255
96294.8
96334
96369.4
96403.5
96433.5
96461
96484.8
96505.2
96521.9
96534.7
96544.1
96550
96553.5
96554.3
96552.6
96549.5
96544.5
96538.3
96530.9
96522.5
96513.5
96503.7
96494.2
96484.4
96474.5
96464.5
96455.2
96446.2
96437.1
96428.7
96421
96414
96407.5
96401.2
96394.9
96388.4
96381.7
96374.6
96367.4
96360.2
96353.2
96346.7
96341.1
96336.5
96332.9
96330.7
96329.3
96328.7
96329
96329.8
96331
96332.7
96334.7
96337
96339.6
96342.6
96346
96349.8
96354.1
96359
96364.4
96370.4
96377
96384.2
96391.8
96400
96408.5
96417.4
96426.6
96436
96445.6
96455.4
96465.2
96475.1
96485
96494.9
96504.6
96514.2
96523.6
96532.9
96541.9
96550.6
96559.2
96567.4
96575.4
96583
96590.4
96597.4
96604.2
96610.7
96617
96622.9
96628.7
96634.2
96639.6
96644.8
96649.8
96654.7
96659.5
96664.2
96668.8
96673.4
96677.9
96682.4
96687
96691.5
96696.1
96700.8
96705.5
96710.2
96715.1
96720
96725.1
96730.2
96735.5
96740.9
96746.4
96752.1
96757.8
96763.7
96769.7
96775.9
96782.2
96788.7
96795.3
96802
96808.9
96815.9
96823
96830.3
96837.8
96845.4
96853.1
96861
96869.1
96877.3
96885.7
96894.2
96902.9
96911.7
96920.7
96929.9
96939.2
96948.7
96958.4
96968.3
96978.3
96988.5
96998.8
97009.4
97020.1
97031
97042
97053.3
97064.7
97076.3
97088.1
97100.1
97112.2
97124.6
97137.1
97149.8
97162.7
97175.7
97189
97202.4
97216
97229.8
97243.8
97258
97272.3
97286.9
97301.6
97316.5
97331.6
97346.8
97362.3
97377.9
97393.7
97409.6
97425.8
97442.1
97458.6
97475.3
97492.1
97509.1
97526.3
97543.6
97561.1
97578.8
97596.6
97614.6
97632.7
97651
97669.5
97688.1
97706.8
97725.7
97744.8
97764
97783.3
97802.8
97822.4
97842.1
97862
97882
97902.2
97922.4
97942.8
97963.3
97983.9
98004.6
98025.5
98046.4
98067.5
98088.7
98109.9
98131.3
98152.7
98174.3
98195.9
98217.6
98239.4
98261.3
98283.3
98305.3
98327.4
98349.5
98371.8
98394.1
98416.4
98438.8
98461.3
98483.8
98506.3
98528.9
98551.6
98574.2
98596.9
98619.6
98642.4
98665.2
98688
98710.8
98733.6
98756.5
98779.3
98802.1
98825
98847.8
98870.7
98893.5
98916.4
98939.2
98962
98984.7
99007.5
99030.2
99052.9
99075.5
99098.2
99120.8
99143.3
99165.8
99188.3
99210.7
99233
99255.3
99277.6
99299.8
99321.9
99343.9
99365.9
99387.9
99409.7
99431.5
99453.2
99474.8
99496.3
99517.7
99539.1
99560.4
99581.5
99602.6
99623.6
99644.5
99665.3
99686
99706.6
99727
99747.4
99767.7
99787.8
99807.9
99827.8
99847.6
99867.3
99886.8
99906.3
99925.6
99944.8
99963.9
99982.8
100002
100020
100039
100057
100076
100094
100112
100130
100147
100165
100183
100200
100217
100234
100251
100268
100284
100301
100317
100333
100349
100365
100381
100397
100412
100428
100443
100458
100473
100488
100502
100517
100531
100545
100559
100573
100587
100600
100614
100627
100641
100654
100667
100679
100692
100705
100717
100729
100741
100753
100765
100777
100789
100800
100812
100823
100834
100845
100856
100867
100878
100888
100899
100909
100919
100929
100940
100950
100960
100969
100979
100989
100998
101008
101017
101026
101036
101045
101054
101063
101072
101081
101090
101099
101108
101116
101125
101134
101142
101151
101159
101168
101177
101185
101194
101202
101210
101219
101227
101236
101244
101253
101261
101270
101278
101287
101295
101304
101313
101322
95952.9
95953.3
95953.1
95952.6
95950.6
95948.6
95945.9
95943.4
95941.7
95940.7
95940.7
95941.3
95942.2
95943.8
95945.5
95946.9
95947.9
95948.2
95947.8
95946.4
95944
95940.2
95935
95928
95919.3
95908.8
95896
95881.8
95866.6
95851.3
95837.2
95824.5
95816.4
95809.9
95810.8
95817.3
95830.2
95849.7
95875.3
95906.1
95941.2
95979.5
96019.3
96060
96099.3
96137
96172
96201.4
96226.2
96245.4
96260.2
96269.6
96277.3
96281.8
96286.4
96291.9
96294.4
96295.7
96294.3
96290.4
96284
96271.8
96253.8
96230.5
96203.4
96174.3
96142.7
96110.2
96077.5
96045.3
96014.9
95988.3
95966
95950.9
95941
95939.8
95944.1
95950.4
95963.1
95980
96002.8
96031.2
96064.3
96101.4
96141.5
96184.1
96227.6
96271.5
96313.9
96355.1
96392.8
96426.5
96454.7
96478.9
96498.4
96514.2
96526.3
96535.4
96541.3
96544.9
96546
96544.6
96541.6
96536.9
96530.7
96523.4
96515.1
96506
96496.3
96486.4
96476.6
96466.2
96456.2
96446.7
96437.7
96429
96421
96413.5
96406.4
96399.6
96393.2
96387.2
96381.3
96375.2
96368.8
96362.3
96355.8
96349.4
96343.4
96338
96333.5
96330.1
96327.9
96326.6
96326.5
96327.1
96328.2
96329.8
96331.6
96333.7
96336
96338.7
96341.6
96344.9
96348.7
96353
96357.9
96363.3
96369.3
96375.9
96383.1
96390.9
96399.1
96407.7
96416.7
96426
96435.6
96445.3
96455.2
96465.1
96475
96485
96494.8
96504.6
96514.2
96523.7
96533
96542
96550.8
96559.3
96567.6
96575.6
96583.2
96590.6
96597.7
96604.5
96611
96617.2
96623.2
96629
96634.5
96639.8
96645
96650
96654.9
96659.6
96664.3
96668.9
96673.5
96678
96682.5
96687
96691.6
96696.2
96700.8
96705.5
96710.2
96715.1
96720
96725.1
96730.2
96735.5
96740.9
96746.4
96752
96757.8
96763.7
96769.7
96775.9
96782.2
96788.7
96795.3
96802
96808.9
96815.9
96823
96830.3
96837.8
96845.4
96853.1
96861
96869.1
96877.3
96885.7
96894.2
96902.9
96911.7
96920.7
96929.9
96939.3
96948.8
96958.4
96968.3
96978.3
96988.5
96998.8
97009.4
97020.1
97031
97042.1
97053.3
97064.7
97076.3
97088.1
97100.1
97112.2
97124.6
97137.1
97149.8
97162.7
97175.8
97189
97202.4
97216.1
97229.9
97243.8
97258
97272.4
97286.9
97301.6
97316.5
97331.6
97346.8
97362.3
97377.9
97393.7
97409.6
97425.8
97442.1
97458.6
97475.2
97492.1
97509.1
97526.2
97543.6
97561.1
97578.7
97596.5
97614.5
97632.7
97651
97669.4
97688
97706.8
97725.7
97744.7
97763.9
97783.3
97802.7
97822.3
97842.1
97862
97882
97902.1
97922.4
97942.7
97963.2
97983.9
98004.6
98025.4
98046.4
98067.4
98088.6
98109.8
98131.2
98152.7
98174.2
98195.8
98217.5
98239.3
98261.2
98283.2
98305.2
98327.3
98349.5
98371.7
98394
98416.3
98438.7
98461.2
98483.7
98506.2
98528.8
98551.5
98574.1
98596.8
98619.6
98642.3
98665.1
98687.9
98710.7
98733.5
98756.4
98779.2
98802
98824.9
98847.7
98870.6
98893.4
98916.2
98939
98961.8
98984.6
99007.4
99030.1
99052.8
99075.4
99098.1
99120.6
99143.2
99165.7
99188.1
99210.6
99232.9
99255.2
99277.5
99299.6
99321.8
99343.8
99365.8
99387.7
99409.6
99431.3
99453
99474.6
99496.2
99517.6
99539
99560.2
99581.4
99602.5
99623.5
99644.4
99665.2
99685.9
99706.4
99726.9
99747.3
99767.5
99787.7
99807.7
99827.6
99847.5
99867.1
99886.7
99906.1
99925.5
99944.7
99963.7
99982.7
100002
100020
100039
100057
100075
100094
100112
100130
100147
100165
100182
100200
100217
100234
100251
100268
100284
100301
100317
100333
100349
100365
100381
100397
100412
100427
100443
100458
100473
100487
100502
100516
100531
100545
100559
100573
100587
100600
100614
100627
100640
100653
100666
100679
100692
100704
100717
100729
100741
100753
100765
100777
100789
100800
100811
100823
100834
100845
100856
100867
100877
100888
100899
100909
100919
100929
100939
100949
100959
100969
100979
100989
100998
101008
101017
101026
101036
101045
101054
101063
101072
101081
101090
101099
101108
101116
101125
101134
101142
101151
101159
101168
101176
101185
101193
101202
101210
101219
101227
101236
101244
101253
101261
101270
101278
101287
101295
101304
101313
101322
95952.7
95953.1
95952.5
95951.7
95948.8
95946.2
95942.7
95940.1
95938.3
95937.2
95937.1
95938.4
95940.1
95942.4
95944.7
95946.9
95948.3
95949.2
95949.1
95948.2
95946.3
95943.1
95938
95930.8
95921
95908.4
95893.2
95875.8
95856.8
95837.1
95818.9
95801.6
95790.5
95781.1
95780.3
95786.2
95798.5
95818.6
95844
95876.2
95912.9
95953.9
95996.8
96040.2
96082.5
96122
96158
96189.6
96216.6
96238.7
96256.4
96269.5
96279.8
96286.6
96293.5
96295.9
96299.6
96300.7
96301
96296.5
96287.7
96272.9
96252.5
96226.6
96196.9
96163.9
96129.4
96094.8
96061.9
96031.6
96004.1
95980.1
95959.2
95943.8
95932.6
95927.1
95928.9
95936.9
95951.4
95970.8
95996
96025.2
96058.9
96096.1
96136.2
96178.4
96221.3
96264.1
96305.4
96344.1
96379.5
96411.7
96440.1
96464.5
96485
96501.6
96514.4
96523.9
96530.1
96533.8
96535
96533.8
96530.9
96526.3
96520.3
96513
96504.7
96495.6
96485.7
96475.7
96465.3
96454.8
96444.4
96434.4
96424.8
96415.6
96407.2
96399.5
96392.5
96386
96380
96374.3
96368.6
96363.1
96357.7
96352.4
96346.9
96341.4
96336.5
96332.3
96329
96326.6
96325.2
96324.8
96325.2
96326.1
96327.5
96329.3
96331.3
96333.5
96335.9
96338.5
96341.4
96344.7
96348.4
96352.7
96357.5
96362.9
96368.9
96375.5
96382.7
96390.5
96398.8
96407.5
96416.5
96425.8
96435.3
96445
96454.9
96464.8
96474.8
96484.7
96494.6
96504.4
96514
96523.5
96532.8
96541.9
96550.7
96559.2
96567.5
96575.5
96583.2
96590.6
96597.7
96604.5
96611
96617.2
96623.2
96629
96634.5
96639.8
96645
96650
96654.9
96659.6
96664.3
96668.9
96673.5
96678
96682.5
96687.1
96691.6
96696.2
96700.8
96705.5
96710.3
96715.1
96720.1
96725.1
96730.3
96735.5
96740.9
96746.4
96752.1
96757.8
96763.8
96769.8
96776
96782.3
96788.7
96795.3
96802
96808.9
96815.9
96823.1
96830.4
96837.9
96845.5
96853.2
96861.1
96869.2
96877.4
96885.8
96894.3
96903
96911.8
96920.8
96930
96939.3
96948.8
96958.5
96968.4
96978.4
96988.6
96998.9
97009.5
97020.2
97031.1
97042.1
97053.4
97064.8
97076.4
97088.2
97100.2
97112.3
97124.7
97137.2
97149.9
97162.7
97175.8
97189.1
97202.5
97216.1
97229.9
97243.9
97258.1
97272.4
97286.9
97301.7
97316.6
97331.6
97346.9
97362.3
97377.9
97393.7
97409.7
97425.8
97442.1
97458.6
97475.3
97492.1
97509.1
97526.3
97543.6
97561.1
97578.8
97596.6
97614.6
97632.7
97651
97669.5
97688.1
97706.8
97725.7
97744.8
97763.9
97783.3
97802.7
97822.4
97842.1
97862
97882
97902.1
97922.4
97942.7
97963.2
97983.9
98004.6
98025.4
98046.4
98067.4
98088.6
98109.8
98131.2
98152.7
98174.2
98195.8
98217.5
98239.3
98261.2
98283.2
98305.2
98327.3
98349.5
98371.7
98394
98416.3
98438.7
98461.2
98483.7
98506.2
98528.8
98551.4
98574.1
98596.8
98619.5
98642.3
98665
98687.8
98710.6
98733.5
98756.3
98779.2
98802
98824.8
98847.7
98870.5
98893.4
98916.2
98939
98961.8
98984.6
99007.3
99030
99052.7
99075.4
99098
99120.6
99143.1
99165.6
99188.1
99210.5
99232.8
99255.1
99277.4
99299.6
99321.7
99343.7
99365.7
99387.6
99409.5
99431.3
99452.9
99474.6
99496.1
99517.5
99538.9
99560.2
99581.3
99602.4
99623.4
99644.3
99665.1
99685.8
99706.3
99726.8
99747.2
99767.4
99787.6
99807.6
99827.6
99847.4
99867
99886.6
99906.1
99925.4
99944.6
99963.6
99982.6
100001
100020
100039
100057
100075
100094
100112
100129
100147
100165
100182
100200
100217
100234
100251
100268
100284
100301
100317
100333
100349
100365
100381
100397
100412
100427
100443
100458
100473
100487
100502
100516
100531
100545
100559
100573
100587
100600
100614
100627
100640
100653
100666
100679
100692
100704
100717
100729
100741
100753
100765
100777
100788
100800
100811
100823
100834
100845
100856
100867
100877
100888
100898
100909
100919
100929
100939
100949
100959
100969
100979
100989
100998
101008
101017
101026
101036
101045
101054
101063
101072
101081
101090
101099
101107
101116
101125
101134
101142
101151
101159
101168
101176
101185
101193
101202
101210
101219
101227
101236
101244
101253
101261
101270
101278
101287
101295
101304
101313
101322
95952.4
95952.7
95951.6
95949.9
95946
95942.8
95938.7
95935.5
95933.1
95931.8
95932.5
95934.3
95937
95940.1
95943.5
95946.5
95949
95950.6
95951.3
95950.9
95949.1
95945.8
95939.9
95931.7
95919.7
95904.4
95885.5
95863.7
95840.1
95815.6
95793.1
95772.2
95757.4
95746.6
95743.6
95747.8
95756.3
95773.6
95798.9
95831.9
95870.3
95913.5
95959.2
96006.6
96053.5
96099.1
96141.4
96179.1
96211.3
96237.1
96257.4
96272.2
96283
96290.5
96296.1
96302.5
96305.2
96307.3
96306.3
96301.8
96291.4
96274
96249.8
96220.4
96186.6
96150.5
96113
96075.5
96039.1
96005.1
95974.7
95949.5
95929
95915.1
95905.8
95902.3
95905.2
95912.4
95925.5
95943.6
95967.4
95996.3
96030
96067.8
96108.8
96152.3
96197
96242
96285.7
96327.1
96364.7
96398.2
96426.9
96451.3
96471.2
96487.4
96499.9
96509.4
96515.6
96519.5
96521
96520
96517.3
96512.9
96506.9
96499.7
96491.4
96482.1
96472.1
96461.7
96451.1
96440.1
96429.4
96418.9
96408.8
96399.3
96390.4
96382.2
96374.7
96367.9
96361.9
96356.3
96351
96346.1
96341.4
96337
96333.3
96330.1
96327
96324.3
96322.2
96321
96320.6
96321.2
96322.3
96324
96325.9
96328.1
96330.4
96332.8
96335.3
96337.9
96340.9
96344.1
96347.8
96352
96356.8
96362.2
96368.2
96374.9
96382.1
96389.9
96398.2
96407
96416.1
96425.5
96435.1
96444.9
96454.8
96464.8
96474.7
96484.7
96494.5
96504.3
96514
96523.5
96532.8
96541.8
96550.6
96559.2
96567.5
96575.5
96583.2
96590.5
96597.6
96604.4
96610.9
96617.2
96623.2
96628.9
96634.4
96639.8
96644.9
96649.9
96654.8
96659.6
96664.3
96668.9
96673.4
96678
96682.5
96687
96691.6
96696.1
96700.8
96705.5
96710.2
96715.1
96720
96725.1
96730.2
96735.5
96740.9
96746.4
96752.1
96757.8
96763.8
96769.8
96776
96782.3
96788.7
96795.3
96802.1
96808.9
96816
96823.1
96830.4
96837.9
96845.5
96853.3
96861.2
96869.2
96877.4
96885.8
96894.3
96903
96911.9
96920.9
96930
96939.4
96948.9
96958.6
96968.4
96978.4
96988.6
96999
97009.5
97020.2
97031.1
97042.2
97053.4
97064.8
97076.5
97088.2
97100.2
97112.4
97124.7
97137.2
97149.9
97162.8
97175.9
97189.1
97202.5
97216.2
97229.9
97243.9
97258.1
97272.4
97287
97301.7
97316.6
97331.7
97346.9
97362.3
97377.9
97393.7
97409.7
97425.8
97442.2
97458.6
97475.3
97492.1
97509.1
97526.3
97543.6
97561.1
97578.8
97596.6
97614.6
97632.7
97651
97669.5
97688.1
97706.8
97725.7
97744.8
97763.9
97783.3
97802.7
97822.3
97842.1
97862
97882
97902.1
97922.4
97942.7
97963.2
97983.8
98004.6
98025.4
98046.3
98067.4
98088.6
98109.8
98131.2
98152.6
98174.2
98195.8
98217.5
98239.3
98261.2
98283.1
98305.1
98327.2
98349.4
98371.6
98393.9
98416.3
98438.7
98461.1
98483.6
98506.2
98528.7
98551.4
98574
98596.7
98619.5
98642.2
98665
98687.8
98710.6
98733.4
98756.2
98779.1
98801.9
98824.8
98847.6
98870.5
98893.3
98916.1
98938.9
98961.7
98984.5
99007.2
99029.9
99052.6
99075.3
99097.9
99120.5
99143
99165.5
99188
99210.4
99232.7
99255
99277.3
99299.5
99321.6
99343.6
99365.6
99387.5
99409.4
99431.2
99452.8
99474.5
99496
99517.4
99538.8
99560
99581.2
99602.3
99623.3
99644.2
99665
99685.6
99706.2
99726.7
99747.1
99767.3
99787.5
99807.5
99827.4
99847.2
99866.9
99886.5
99905.9
99925.3
99944.5
99963.5
99982.5
100001
100020
100039
100057
100075
100093
100111
100129
100147
100165
100182
100199
100217
100234
100251
100267
100284
100301
100317
100333
100349
100365
100381
100396
100412
100427
100442
100458
100472
100487
100502
100516
100531
100545
100559
100573
100586
100600
100614
100627
100640
100653
100666
100679
100692
100704
100717
100729
100741
100753
100765
100777
100788
100800
100811
100823
100834
100845
100856
100866
100877
100888
100898
100909
100919
100929
100939
100949
100959
100969
100979
100988
100998
101007
101017
101026
101035
101045
101054
101063
101072
101081
101090
101099
101107
101116
101125
101133
101142
101151
101159
101168
101176
101185
101193
101202
101210
101219
101227
101236
101244
101253
101261
101270
101278
101287
101295
101304
101313
101322
95952.8
95952.8
95950.9
95948.9
95944.3
95940.2
95935
95931.4
95928.6
95927.6
95928.5
95930.8
95934.2
95938.1
95942.3
95946
95949.3
95951.4
95952.9
95953.1
95951.4
95948.2
95941.5
95931.9
95917.4
95898.6
95875.2
95848.3
95819.5
95789.8
95762.1
95736.2
95716
95701
95692.7
95695.3
95707.4
95727.6
95755.3
95790.8
95831.8
95878.1
95927.2
95977.7
96027.9
96076.1
96121.3
96162.5
96198.8
96229.7
96254.8
96274.5
96288.8
96299.7
96307.2
96311.4
96316.7
96316.9
96315.4
96307.8
96295
96274.3
96247.2
96214.4
96177.6
96138.6
96099.2
96061
96025.2
95992.6
95963.6
95939.3
95918.9
95904.6
95894.7
95890.6
95893.3
95901
95915.3
95934
95958.5
95987.1
96020.3
96057.2
96097.3
96139.9
96183.6
96227.5
96270.1
96310.2
96347
96380.1
96408.9
96433.4
96453.9
96470.4
96483.3
96492.9
96499.4
96503.3
96505
96504.2
96501.5
96497.1
96491.3
96484
96475.5
96466
96455.8
96445
96433.8
96422.5
96411.2
96400.2
96389.5
96379.4
96369.9
96361.2
96353.3
96346.3
96340.2
96335
96330.6
96326.8
96323.3
96320
96316.7
96314.1
96312.8
96312.5
96312.8
96313.7
96314.9
96317
96319.3
96321.9
96324.5
96327.2
96329.9
96332.5
96335.2
96337.9
96340.8
96344
96347.6
96351.8
96356.5
96361.9
96368
96374.7
96382
96389.8
96398.2
96407
96416.1
96425.6
96435.2
96445
96454.9
96464.8
96474.8
96484.7
96494.6
96504.3
96513.9
96523.4
96532.6
96541.7
96550.5
96559.1
96567.4
96575.3
96583
96590.4
96597.5
96604.3
96610.8
96617
96623
96628.7
96634.3
96639.6
96644.8
96649.8
96654.7
96659.4
96664.1
96668.7
96673.3
96677.8
96682.4
96686.9
96691.5
96696
96700.7
96705.4
96710.2
96715
96720
96725
96730.2
96735.5
96740.9
96746.4
96752.1
96757.8
96763.8
96769.8
96776
96782.3
96788.8
96795.4
96802.1
96809
96816
96823.2
96830.5
96837.9
96845.6
96853.3
96861.2
96869.3
96877.5
96885.9
96894.4
96903.1
96911.9
96920.9
96930.1
96939.4
96949
96958.6
96968.5
96978.5
96988.7
96999
97009.6
97020.3
97031.2
97042.2
97053.5
97064.9
97076.5
97088.3
97100.3
97112.4
97124.8
97137.3
97150
97162.8
97175.9
97189.2
97202.6
97216.2
97230
97244
97258.2
97272.5
97287
97301.7
97316.6
97331.7
97347
97362.4
97378
97393.8
97409.7
97425.9
97442.2
97458.7
97475.3
97492.2
97509.2
97526.3
97543.7
97561.1
97578.8
97596.6
97614.6
97632.7
97651
97669.5
97688.1
97706.8
97725.7
97744.8
97764
97783.3
97802.8
97822.4
97842.1
97862
97882
97902.1
97922.4
97942.7
97963.2
97983.8
98004.6
98025.4
98046.4
98067.4
98088.6
98109.8
98131.2
98152.6
98174.1
98195.8
98217.5
98239.3
98261.2
98283.1
98305.1
98327.2
98349.4
98371.6
98393.9
98416.2
98438.6
98461.1
98483.6
98506.1
98528.7
98551.3
98574
98596.7
98619.4
98642.2
98664.9
98687.7
98710.5
98733.4
98756.2
98779
98801.9
98824.7
98847.6
98870.4
98893.2
98916.1
98938.9
98961.6
98984.4
99007.2
99029.9
99052.6
99075.2
99097.8
99120.4
99143
99165.5
99187.9
99210.3
99232.7
99255
99277.2
99299.4
99321.5
99343.6
99365.5
99387.5
99409.3
99431.1
99452.8
99474.4
99495.9
99517.3
99538.7
99560
99581.1
99602.2
99623.2
99644.1
99664.9
99685.6
99706.1
99726.6
99747
99767.2
99787.4
99807.4
99827.3
99847.1
99866.8
99886.4
99905.8
99925.2
99944.4
99963.4
99982.4
100001
100020
100038
100057
100075
100093
100111
100129
100147
100165
100182
100199
100217
100234
100251
100267
100284
100300
100317
100333
100349
100365
100381
100396
100412
100427
100442
100457
100472
100487
100502
100516
100530
100545
100559
100573
100586
100600
100614
100627
100640
100653
100666
100679
100692
100704
100716
100729
100741
100753
100765
100777
100788
100800
100811
100822
100834
100845
100856
100866
100877
100888
100898
100909
100919
100929
100939
100949
100959
100969
100979
100988
100998
101007
101017
101026
101035
101045
101054
101063
101072
101081
101090
101098
101107
101116
101125
101133
101142
101151
101159
101168
101176
101185
101193
101202
101210
101219
101227
101236
101244
101253
101261
101270
101278
101287
101295
101304
101313
101322
95953.7
95953.5
95950.9
95948.5
95942.5
95937.9
95931.8
95927.6
95924.4
95923.1
95924.2
95927
95931.2
95936
95941.1
95945.7
95949.9
95952.8
95954.9
95955.6
95954
95950.4
95942.5
95930.9
95913.3
95890.7
95862.5
95830.5
95796.3
95761.1
95728
95697.7
95672.8
95655.6
95643.1
95642.6
95653.4
95671.3
95700.1
95736.9
95780.8
95830.6
95884
95939.9
95996
96050.9
96102.6
96149.6
96191.1
96226.4
96255.8
96279
96296.9
96309.6
96317.4
96324.8
96325.6
96329.4
96324.9
96316.6
96299.9
96276.2
96245.3
96208.9
96169
96127.2
96085.1
96044.7
96007.3
95973.7
95944.1
95919.8
95899.6
95885.6
95876.1
95872.2
95874.8
95881.9
95895.3
95913.1
95936.8
95965.2
95998.3
96035.5
96076
96119
96163.3
96208
96251.6
96292.7
96330.2
96363.3
96392
96416.1
96436.2
96452.4
96465.1
96474.6
96481.2
96485.2
96487
96486.4
96483.8
96479.4
96473.5
96466.1
96457.4
96447.6
96437
96425.7
96414
96402.1
96390.3
96378.7
96367.5
96356.9
96347
96337.8
96329.5
96322.1
96315.5
96309.8
96305
96301.2
96298.7
96297.3
96296.8
96296.6
96296.6
96297.4
96299.3
96302.2
96305.8
96309.7
96313.5
96317.6
96321.4
96325.1
96328.5
96331.7
96334.8
96337.7
96340.8
96344
96347.7
96351.8
96356.6
96362
96368.1
96374.8
96382.2
96390.2
96398.6
96407.4
96416.6
96426
96435.7
96445.5
96455.3
96465.2
96475.1
96485
96494.8
96504.5
96514.1
96523.5
96532.7
96541.7
96550.5
96559
96567.3
96575.2
96582.9
96590.3
96597.3
96604.1
96610.6
96616.8
96622.8
96628.5
96634
96639.3
96644.5
96649.5
96654.4
96659.2
96663.9
96668.5
96673.1
96677.6
96682.2
96686.7
96691.3
96695.9
96700.5
96705.2
96710
96714.9
96719.9
96724.9
96730.1
96735.4
96740.8
96746.4
96752
96757.8
96763.7
96769.8
96776
96782.3
96788.8
96795.4
96802.1
96809
96816
96823.2
96830.5
96838
96845.6
96853.4
96861.3
96869.3
96877.5
96885.9
96894.4
96903.1
96912
96921
96930.2
96939.5
96949
96958.7
96968.5
96978.5
96988.7
96999.1
97009.6
97020.3
97031.2
97042.3
97053.5
97065
97076.6
97088.4
97100.3
97112.5
97124.8
97137.3
97150
97162.9
97176
97189.2
97202.6
97216.3
97230.1
97244
97258.2
97272.5
97287.1
97301.8
97316.7
97331.7
97347
97362.4
97378
97393.8
97409.8
97425.9
97442.2
97458.7
97475.4
97492.2
97509.2
97526.3
97543.7
97561.2
97578.8
97596.6
97614.6
97632.8
97651.1
97669.5
97688.1
97706.8
97725.7
97744.8
97764
97783.3
97802.8
97822.4
97842.1
97862
97882
97902.1
97922.4
97942.7
97963.2
97983.8
98004.6
98025.4
98046.3
98067.4
98088.5
98109.8
98131.1
98152.6
98174.1
98195.8
98217.5
98239.3
98261.1
98283.1
98305.1
98327.2
98349.4
98371.6
98393.9
98416.2
98438.6
98461
98483.5
98506.1
98528.7
98551.3
98574
98596.6