/*--------------------------------*- C++ -*----------------------------------*\
| =========                 |                                                 |
| \\      /  F ield         | OpenFOAM: The Open Source CFD Toolbox           |
|  \\    /   O peration     | Version:  v1812                                 |
|   \\  /    A nd           | Web:      www.OpenFOAM.com                      |
|    \\/     M anipulation  |                                                 |
\*---------------------------------------------------------------------------*/
FoamFile
{
    version     2.0;
    format      ascii;
    class       surfaceScalarField;
    location    "0.5";
    object      phi;
}
// * * * * * * * * * * * * * * * * * * * * * * * * * * * * * * * * * * * * * //

dimensions      [1 0 -1 0 0 0 0];
oriented        oriented;


internalField   nonuniform List<scalar> 
40240
(
-7.22864e-06
3.14158e-05
0.000180331
-0.000163351
0.000740229
-0.000535621
0.00160104
-0.000836381
0.00255999
-0.000934261
0.00342032
-0.000835297
0.00405641
-0.000610674
0.00420366
-0.000121434
0.00412293
0.000106887
0.00367059
0.000478741
0.00303222
0.000664928
0.00232416
0.000734675
0.00166989
0.000680887
0.0011101
0.000586361
0.000735387
0.00040127
0.000523492
0.000238364
0.000465563
8.43407e-05
0.000489843
2.02815e-06
0.000607174
-9.11276e-05
0.00070796
-7.46752e-05
0.000748806
-1.48476e-05
0.000704685
7.00523e-05
0.000507871
0.000222415
0.000138813
0.000394705
-0.000490803
0.00065484
-0.00146081
0.000995126
-0.00282095
0.00138498
-0.00456619
0.00176983
-0.00668581
0.00214417
-0.00912471
0.00246326
-0.0118247
0.00272481
-0.0146036
0.00280378
-0.0173732
0.00279552
-0.0198831
0.00253701
-0.0219929
0.00213792
-0.0235628
0.00159998
-0.0244028
0.000871155
-0.0245743
0.000205849
-0.0240327
-0.000507752
-0.0228463
-0.00114914
-0.0210337
-0.00177509
-0.0187324
-0.00226199
-0.0160402
-0.00265222
-0.0130823
-0.00291749
-0.0100294
-0.00301209
-0.00715513
-0.00283404
-0.00483316
-0.00228299
-0.00254224
-0.00225381
-0.000513261
-0.00199471
0.00119122
-0.00167398
0.0025294
-0.00131404
0.00349526
-0.000948319
0.00425599
-0.000750449
0.00492462
-0.000664086
0.00562199
-0.000698535
0.00633835
-0.000719733
0.00724835
-0.000913652
0.00836077
-0.001113
0.00955814
-0.001192
0.0105967
-0.00102613
0.0109002
-0.000289241
0.0104476
0.000476398
0.00948088
0.000987048
0.00859017
0.000912091
0.00687419
0.00173714
0.00457657
0.00231516
0.00189372
0.00269818
-0.00104368
0.00294869
-0.00445324
0.00341899
-0.00811929
0.00367306
-0.0118468
0.00373302
-0.0155299
0.00368758
-0.0190632
0.00353667
-0.0224011
0.00334156
-0.0254386
0.00304005
-0.0280249
0.00259049
-0.0300694
0.00204984
-0.031581
0.00151812
-0.0325644
0.000991571
-0.0329295
0.000374905
-0.0327847
-0.000132366
-0.0320424
-0.000730582
-0.0308151
-0.00121474
-0.0290488
-0.0017546
-0.0268149
-0.00222256
-0.02421
-0.00259455
-0.0213464
-0.00285475
-0.0182332
-0.00310655
-0.0149924
-0.00322992
-0.0121667
-0.00282186
-0.00940098
-0.00275979
-0.00623543
-0.00316503
-0.00308021
-0.0031546
-5.96101e-06
-0.00307524
0.00321246
-0.00322029
0.00635835
-0.00314951
0.00928608
-0.00293198
0.0119999
-0.0027185
0.0144943
-0.00249914
0.0167554
-0.00226556
0.018787
-0.00203532
0.0205879
-0.00180341
0.0221286
-0.00154128
0.0234105
-0.00127965
0.0244341
-0.00101793
0.0251817
-0.0007373
0.0256326
-0.000436669
0.0257696
-0.000116387
0.0257513
4.73215e-05
0.0255171
0.000272873
0.0250413
0.000522195
0.0242485
0.000846629
0.0232304
0.0010774
0.0220451
0.00124908
0.0207237
0.00138835
0.0193251
0.00146727
0.0178868
0.00150662
0.0164378
0.0015151
0.0150157
0.00148414
0.0136463
0.00142692
0.0123345
0.00136532
0.0110702
0.00131382
0.00984344
0.00127241
0.00865019
0.00123548
0.00749232
0.00119732
0.00637393
0.00115576
0.00530004
0.00110982
0.00427559
0.00105952
0.00330362
0.00100642
0.00239231
0.000945517
0.00154642
0.000880117
0.000777287
0.000803445
9.06761e-05
0.000721413
-0.000520472
0.000646065
-0.00109064
0.000605591
-0.0016192
0.000564369
-0.00211302
0.000529754
-0.00257899
0.000502205
-0.00302385
0.000481234
-0.00345251
0.000465148
-0.00386713
0.000451187
-0.00426735
0.000436832
-0.00465019
0.000419497
-0.00501129
0.000397795
-0.00534598
0.000371415
-0.00564934
0.000340117
-0.00591672
0.000304174
-0.00614291
0.000263024
-0.00632671
0.000220661
-0.00645842
0.000168623
-0.00654501
0.000123563
-0.00658231
7.4248e-05
-0.00657916
3.3964e-05
-0.00652831
-1.37855e-05
-0.00643744
-5.37341e-05
-0.00630648
-9.38128e-05
-0.00614112
-0.000128185
-0.00594473
-0.000159159
-0.00572151
-0.000185949
-0.00547435
-0.00020979
-0.00520693
-0.00022997
-0.00492294
-0.000246412
-0.00462599
-0.000259237
-0.00431975
-0.000268364
-0.00400769
-0.000273997
-0.00369313
-0.000276275
-0.00337929
-0.000275319
-0.00306916
-0.000271339
-0.00276554
-0.000264538
-0.00247102
-0.000255139
-0.00218786
-0.000243439
-0.00191804
-0.000229751
-0.00166323
-0.000214379
-0.00142467
-0.000197747
-0.00120316
-0.000180293
-0.000999219
-0.00016232
-0.000813168
-0.000144006
-0.000645127
-0.00012556
-0.000495053
-0.000107147
-0.000362685
-8.89827e-05
-0.000247453
-7.13765e-05
-0.000148513
-5.4605e-05
-6.48633e-05
-3.88251e-05
4.58102e-06
-2.41232e-05
6.08654e-05
-1.04464e-05
0.000104721
2.51234e-06
0.000136535
1.51026e-05
0.000157122
2.68776e-05
0.000167376
3.77905e-05
0.000168522
4.74681e-05
0.000162178
5.55776e-05
0.000148694
6.3323e-05
0.000129213
6.99588e-05
0.000104589
7.57524e-05
7.57695e-05
8.06197e-05
4.3568e-05
8.46934e-05
8.75985e-06
8.80101e-05
-2.79937e-05
9.06746e-05
-6.60386e-05
9.26945e-05
-0.000104946
9.43026e-05
-0.000144245
9.54518e-05
-0.000183572
9.62619e-05
-0.000222608
9.68133e-05
-0.00026108
9.70937e-05
-0.000298722
9.70935e-05
-0.000335626
9.72161e-05
-0.000371573
9.71419e-05
-0.000406478
9.69978e-05
-0.000440326
9.68532e-05
-0.0004731
9.67106e-05
-0.000504796
9.65804e-05
-0.000535423
9.64775e-05
-0.000564995
9.64056e-05
-0.000593533
9.6372e-05
-0.000621064
9.63813e-05
-0.000647615
9.64339e-05
-0.00067321
9.65279e-05
-0.000697874
9.66628e-05
-0.000721629
9.68343e-05
-0.000744492
9.704e-05
-0.000766477
9.72744e-05
-0.000787594
9.75345e-05
-0.000807848
9.78151e-05
-0.00082724
9.81103e-05
-0.000845768
9.84186e-05
-0.000863426
9.87346e-05
-0.000880204
9.90548e-05
-0.000896094
9.93791e-05
-0.000911078
9.97013e-05
-0.000925145
0.000100022
-0.000938279
0.00010034
-0.000950462
0.000100653
-0.00096168
0.000100961
-0.000971918
0.000101267
-0.000981155
0.000101562
-0.000989382
0.000101856
-0.000996582
0.000102146
-0.00100274
0.000102423
-0.00100786
0.00010271
-0.0010119
0.000102969
-0.00101477
0.000103208
-0.00101667
0.00010355
-0.00101749
0.000103816
-0.00101716
0.000104049
-0.0010157
0.000104294
-0.00101314
0.000104563
-0.00100944
0.000104815
-0.00100461
0.000105066
-0.00099863
0.000105314
-0.000991508
0.000105561
-0.000983235
0.000105805
-0.000973805
0.000106045
-0.000963214
0.000106282
-0.000951459
0.000106516
-0.000938535
0.000106747
-0.000924439
0.000106974
-0.000909167
0.000107197
-0.000892716
0.000107414
-0.000875083
0.000107626
-0.000856266
0.000107832
-0.000836263
0.000108032
-0.000815075
0.000108229
-0.000792699
0.000108419
-0.000769134
0.000108604
-0.00074438
0.000108782
-0.000718434
0.000108954
-0.000691297
0.000109119
-0.00066297
0.000109277
-0.000633452
0.000109429
-0.000602743
0.000109573
-0.000570845
0.000109709
-0.000537758
0.000109838
-0.000503485
0.00010996
-0.000468026
0.000110074
-0.000431384
0.000110181
-0.000393561
0.000110278
-0.000354562
0.000110368
-0.000314385
0.000110445
-0.000273039
0.00011051
-0.000230533
0.000110556
-0.000186852
0.000110571
-0.000142047
0.000110635
-9.61044e-05
0.000110675
-4.90239e-05
0.000110703
-8.11571e-07
0.000110719
4.85255e-05
0.000110724
9.89878e-05
0.000110715
0.000150575
0.00011069
0.000203279
0.000110656
0.000257093
0.000110612
0.000312008
0.000110558
0.000368015
0.000110496
0.000425106
0.000110423
0.00048327
0.000110342
0.000542498
0.00011025
0.000602781
0.00011015
0.000664108
0.00011004
0.000726469
0.00010992
0.000789853
0.000109791
0.000854251
0.000109653
0.000919651
0.000109505
0.000986042
0.000109347
0.00105341
0.00010918
0.00112175
0.000109003
0.00119104
0.000108816
0.00126128
0.00010862
0.00133244
0.000108415
0.00140452
0.0001082
0.0014775
0.000107977
0.00155137
0.000107744
0.00162612
0.000107502
0.00170173
0.000107251
0.00177818
0.000106991
0.00185546
0.000106722
0.00193356
0.000106445
0.00201246
0.000106158
0.00209215
0.000105863
0.00217261
0.00010556
0.00225383
0.00010525
0.00233579
0.000104932
0.00241847
0.000104602
0.00250187
0.000104265
0.00258596
0.00010392
0.00267073
0.000103564
0.00275616
0.000103201
0.00284224
0.000102831
0.00292894
0.000102454
0.00301626
0.000102068
0.00310417
0.000101676
0.00319267
0.000101275
0.00328172
0.000100868
0.00337132
0.000100453
0.00346144
0.00010003
0.00355208
9.95998e-05
0.0036432
9.91625e-05
0.00373481
9.8718e-05
0.00382687
9.82668e-05
0.00391938
9.78087e-05
0.00401231
9.73441e-05
0.00410564
9.68729e-05
0.00419937
9.63954e-05
0.00429346
9.59114e-05
0.00438791
9.54213e-05
0.0044827
9.49251e-05
0.0045778
9.44228e-05
0.0046732
9.39146e-05
0.00476889
9.34006e-05
0.00486484
9.2881e-05
0.00496105
9.23558e-05
0.00505748
9.18252e-05
0.00515412
9.12892e-05
0.00525096
9.07481e-05
0.00534797
9.02018e-05
0.00544515
8.96505e-05
0.00554246
8.90943e-05
0.00563991
8.85335e-05
0.00573745
8.79682e-05
0.00583509
8.73986e-05
0.0059328
8.68246e-05
0.00603057
8.62465e-05
0.00612837
8.56641e-05
0.0062262
8.50777e-05
0.00632403
8.44876e-05
0.00642184
8.38937e-05
0.00651962
8.32961e-05
0.00661736
8.26948e-05
0.00671503
8.20904e-05
0.00681262
8.14835e-05
0.00691012
8.08735e-05
0.0070075
8.02601e-05
0.00710474
7.96434e-05
0.00720185
7.90236e-05
0.00729879
7.84008e-05
0.00739555
7.77757e-05
0.00749211
7.71494e-05
0.00758847
7.65224e-05
0.00768459
7.58933e-05
0.00778047
7.52618e-05
0.0078761
7.46269e-05
0.00797145
7.39891e-05
0.00806651
7.33503e-05
0.00816127
7.27113e-05
0.00825571
7.20712e-05
0.00834982
7.14294e-05
0.00844358
7.07861e-05
0.00853697
7.01407e-05
0.00862999
6.94945e-05
0.00872262
6.88479e-05
0.00881485
6.82013e-05
0.00890666
6.75542e-05
0.00899803
6.69072e-05
0.00908895
6.62598e-05
0.00917942
6.56132e-05
0.00926941
6.49659e-05
0.00935891
6.43168e-05
0.00944792
6.36661e-05
0.00953641
6.30182e-05
0.00962438
6.23739e-05
0.00971181
6.17307e-05
0.00979868
6.10854e-05
0.009885
6.04385e-05
0.00997074
5.97897e-05
0.0100559
5.91435e-05
0.0101405
5.85022e-05
0.0102244
5.78613e-05
0.0103077
5.7221e-05
0.0103904
5.65818e-05
0.0104725
5.59439e-05
0.0105539
5.53065e-05
0.0106347
5.4671e-05
0.0107147
5.40377e-05
0.0107941
5.34063e-05
0.0108728
5.27776e-05
0.0109508
5.21505e-05
0.011028
5.15256e-05
0.0111046
5.09001e-05
0.0111804
5.02747e-05
0.0112554
4.96516e-05
0.0113298
4.90343e-05
0.0114033
4.84215e-05
0.0114761
4.78124e-05
0.0115481
4.72039e-05
0.0116193
4.6596e-05
0.0116897
4.59905e-05
0.0117594
4.53864e-05
0.0118282
4.47857e-05
0.0118961
4.41888e-05
0.0119633
4.35972e-05
0.0120296
4.3007e-05
0.0120951
4.24201e-05
0.0121597
4.18391e-05
0.0122234
4.12588e-05
0.0122863
4.06803e-05
0.0123484
4.01043e-05
0.0124095
3.95342e-05
0.0124697
3.89663e-05
0.0125291
3.84017e-05
0.0125875
3.78395e-05
0.0126451
3.72823e-05
0.0127017
3.67268e-05
0.0127574
3.61754e-05
0.0128122
3.56294e-05
0.012866
3.50876e-05
0.0129189
3.45494e-05
0.0129709
3.40144e-05
0.0130219
3.34811e-05
0.0130719
3.29515e-05
0.013121
3.24271e-05
0.0131691
3.19039e-05
0.0132162
3.13823e-05
0.0132623
3.08686e-05
0.0133075
3.03602e-05
0.0133516
2.98558e-05
0.0133948
2.93553e-05
0.0134369
2.88538e-05
0.0134781
2.83599e-05
0.0135182
2.78686e-05
0.0135573
2.73797e-05
0.0135953
2.68942e-05
0.0136324
2.64127e-05
0.0136684
2.59324e-05
0.0137033
2.54578e-05
0.0137372
2.49935e-05
0.01377
2.45259e-05
0.0138018
2.40615e-05
0.0138325
2.35999e-05
0.0138621
2.31375e-05
0.0138907
2.26875e-05
0.0139182
2.22437e-05
0.0139445
2.17989e-05
0.0139698
2.13602e-05
0.013994
2.09162e-05
0.014017
2.04748e-05
0.014039
2.0034e-05
0.0140598
1.96018e-05
0.0140796
1.91685e-05
0.0140982
1.87397e-05
0.0141156
1.83068e-05
0.0141319
1.78903e-05
0.0141471
1.74538e-05
0.0141612
1.70437e-05
0.0141741
1.66e-05
0.0141858
1.62035e-05
0.0141965
1.57306e-05
0.0142059
1.5369e-05
0.0142142
1.48303e-05
0.0142213
1.45424e-05
0.0142274
1.39176e-05
0.0142321
1.36923e-05
0.0142358
1.30864e-05
0.0142381
1.28106e-05
0.0142394
1.22086e-05
0.0142394
1.19629e-05
0.0142383
1.14012e-05
0.0142364
1.05514e-05
0.0142325
1.07635e-05
0.0142294
8.22326e-06
0.0142245
8.06225e-06
0.0142241
1.08022e-06
-1.56738e-07
0.000135702
-8.0133e-05
0.000855296
-0.000858702
0.00215655
-0.00181249
0.00388006
-0.00253531
0.00569603
-0.00272539
0.00737363
-0.00248766
0.00864668
-0.00185806
0.00950711
-0.000955737
0.00963773
2.74672e-06
0.00926191
0.000881308
0.00836776
0.00158598
0.00710177
0.00202761
0.00564868
0.00216093
0.00420384
0.00205809
0.0029258
0.00170614
0.00188632
0.00130459
0.00111359
0.000883745
0.000563933
0.000578288
7.2995e-05
0.000426319
-0.000472474
0.000497251
-0.00118373
0.000722815
-0.00214498
0.00105761
-0.00346305
0.0015667
-0.00523323
0.00219098
-0.00749075
0.00293848
-0.0102318
0.0037622
-0.0134251
0.00460414
-0.0170121
0.00538236
-0.0208633
0.00602091
-0.0247549
0.00638048
-0.0284615
0.00645749
-0.0317851
0.0061541
-0.0345512
0.00558889
-0.0366346
0.00464906
-0.0379516
0.00348439
-0.0384108
0.00209033
-0.038099
0.00059125
-0.0369223
-0.000937145
-0.0349828
-0.00241265
-0.0323119
-0.00378357
-0.0290049
-0.00504474
-0.0251407
-0.00608785
-0.0208232
-0.00693069
-0.016228
-0.00747201
-0.0114778
-0.00772103
-0.00667154
-0.0075978
-0.00179467
-0.00711806
0.00251293
-0.00651972
0.00635535
-0.00579786
0.00961275
-0.00489473
0.0121919
-0.00385994
0.0140313
-0.00275833
0.0151593
-0.00185474
0.0157167
-0.00120505
0.0160759
-0.00105183
0.0162481
-0.000897279
0.0163418
-0.00102436
0.0163217
-0.00111633
0.0158369
-0.000723949
0.0147611
5.06286e-05
0.0135964
0.000890745
0.0119584
0.00213713
0.0090751
0.00389505
0.00444955
0.00556662
-0.000751026
0.00696205
-0.00645654
0.00804352
-0.0125343
0.00879583
-0.0187858
0.00921836
-0.0246804
0.00933006
-0.0300503
0.00905887
-0.0347989
0.00849735
-0.0388669
0.00777193
-0.0421686
0.00685555
-0.0446795
0.00587089
-0.0463209
0.00470152
-0.0473335
0.00362443
-0.0475402
0.00227842
-0.0474516
0.00145285
-0.0469164
0.000480342
-0.0458131
-0.000703654
-0.0441491
-0.00177174
-0.0420468
-0.00280752
-0.0394728
-0.00376276
-0.0365156
-0.00468553
-0.0331935
-0.0055182
-0.0294248
-0.00633676
-0.0252346
-0.00701864
-0.0207702
-0.00754506
-0.0161059
-0.00787316
-0.010789
-0.00811156
-0.00521392
-0.00831167
2.81839e-05
-0.00838703
0.00520092
-0.0083112
0.0103017
-0.00816221
0.0150483
-0.00795767
0.0195559
-0.00765133
0.0239496
-0.00732298
0.0281935
-0.00696264
0.0322577
-0.00656662
0.0361274
-0.00614122
0.0397792
-0.00569602
0.0432161
-0.00525196
0.0464187
-0.004758
0.0493724
-0.00424987
0.0520654
-0.0037297
0.0544861
-0.00317862
0.0565923
-0.00256525
0.0583701
-0.00191707
0.0597412
-0.00134638
0.060695
-0.000700524
0.0610737
0.000133727
0.0610113
0.000910249
0.0604848
0.00161074
0.0594467
0.00229833
0.057851
0.00300325
0.0557126
0.00363497
0.0530901
0.00416927
0.0500516
0.00460374
0.0466757
0.00491489
0.0430566
0.00510199
0.0393044
0.00517489
0.035531
0.00514715
0.0318358
0.00502778
0.0282921
0.00483587
0.0249539
0.0045881
0.0218566
0.00430166
0.0190208
0.00399116
0.0164519
0.00367161
0.014147
0.00335302
0.0120941
0.00303894
0.0102802
0.00273347
0.00868304
0.00243953
0.00727198
0.00217107
0.00602626
0.00193013
0.0049367
0.00173336
0.00396023
0.00157892
0.00307251
0.00145553
0.00225493
0.00135799
0.00149697
0.00127745
0.000793749
0.0012067
0.000144733
0.00113863
-0.000448418
0.00106847
-0.000983536
0.000993152
-0.00145571
0.000908545
-0.00185792
0.000812245
-0.00218402
0.000704867
-0.00242764
0.000586454
-0.00258657
0.000460617
-0.00265271
0.0003254
-0.00263854
0.000193058
-0.00253621
5.96965e-05
-0.00235383
-6.98216e-05
-0.00209428
-0.000187439
-0.00176715
-0.000303029
-0.00137446
-0.000408732
-0.000922882
-0.000507954
-0.000417727
-0.000596148
0.00013396
-0.000673903
0.000724808
-0.000740118
0.00134707
-0.000795613
0.00199524
-0.00084192
0.00266335
-0.000878486
0.00334505
-0.000905071
0.00403431
-0.000921869
0.00472529
-0.000929289
0.00541242
-0.00092773
0.00609041
-0.000917585
0.00675424
-0.000899346
0.00739931
-0.000873628
0.00802144
-0.000841048
0.00861693
-0.000802426
0.00918259
-0.000758566
0.00971578
-0.000710324
0.0102146
-0.000658902
0.010678
-0.00060548
0.0111053
-0.00055087
0.0114961
-0.000495596
0.0118504
-0.000439986
0.0121684
-0.000384704
0.0124511
-0.00033054
0.0126998
-0.00027838
0.0129166
-0.000228987
0.0131036
-0.000182803
0.0132632
-0.000139971
0.0133977
-0.000100471
0.0135097
-6.43592e-05
0.0136022
-3.15863e-05
0.0136777
-2.10264e-06
0.0137381
2.46004e-05
0.0137852
4.82658e-05
0.0138205
6.89161e-05
0.0138462
8.70315e-05
0.0138636
0.000102578
0.0138744
0.000115811
0.0138799
0.000126697
0.0138815
0.000135406
0.0138805
0.000142061
0.0138779
0.000147096
0.0138744
0.000150867
0.0138707
0.000153491
0.0138672
0.000155178
0.0138644
0.000156062
0.0138629
0.000156301
0.0138626
0.000156153
0.0138636
0.00015578
0.0138664
0.000154908
0.013871
0.000153986
0.0138774
0.000153021
0.0138855
0.000152018
0.0138953
0.00015103
0.013907
0.000150103
0.0139203
0.000149254
0.0139354
0.000148497
0.013952
0.000147842
0.0139703
0.00014729
0.01399
0.000146841
0.0140113
0.000146487
0.0140341
0.000146225
0.0140582
0.000146045
0.0140838
0.000145937
0.0141108
0.000145889
0.0141392
0.000145895
0.0141689
0.00014594
0.0142
0.000146015
0.0142326
0.000146115
0.0142665
0.000146229
0.0143018
0.000146352
0.0143385
0.000146481
0.0143766
0.000146607
0.0144162
0.000146732
0.0144572
0.000146851
0.0144997
0.000146962
0.0145436
0.000147069
0.0145891
0.000147168
0.0146361
0.000147258
0.0146845
0.000147349
0.0147345
0.000147429
0.0147861
0.000147508
0.0148391
0.000147591
0.0148937
0.000147659
0.0149498
0.000147745
0.0150075
0.00014784
0.0150668
0.000147924
0.0151276
0.000148004
0.0151899
0.000148087
0.0152538
0.000148181
0.0153192
0.000148277
0.0153861
0.000148376
0.0154546
0.000148479
0.0155246
0.000148585
0.0155962
0.000148694
0.0156693
0.000148804
0.0157439
0.000148917
0.01582
0.000149032
0.0158977
0.000149148
0.0159768
0.000149264
0.0160575
0.00014938
0.0161397
0.000149495
0.0162233
0.000149606
0.0163085
0.000149707
0.0163951
0.000149806
0.0164833
0.000149908
0.0165729
0.000150005
0.0166639
0.000150096
0.0167565
0.000150183
0.0168505
0.000150263
0.0169459
0.000150337
0.0170428
0.000150405
0.0171411
0.000150466
0.0172408
0.000150519
0.017342
0.000150565
0.0174445
0.000150603
0.0175485
0.000150633
0.0176539
0.000150654
0.0177606
0.000150667
0.0178687
0.000150671
0.0179781
0.000150665
0.0180889
0.000150648
0.018201
0.000150619
0.0183145
0.000150573
0.0184292
0.000150515
0.0185453
0.000150464
0.0186626
0.000150401
0.0187812
0.000150327
0.0189011
0.000150241
0.0190222
0.000150145
0.0191445
0.00015004
0.019268
0.000149925
0.0193927
0.000149799
0.0195185
0.000149662
0.0196455
0.000149515
0.0197737
0.000149358
0.0199029
0.00014919
0.0200332
0.000149012
0.0201646
0.000148824
0.020297
0.000148625
0.0204305
0.000148415
0.020565
0.000148194
0.0207005
0.000147963
0.020837
0.000147721
0.0209744
0.000147467
0.0211128
0.000147204
0.0212521
0.000146929
0.0213923
0.000146644
0.0215334
0.000146346
0.0216754
0.000146038
0.0218181
0.00014572
0.0219618
0.00014539
0.0221062
0.000145051
0.0222513
0.000144701
0.0223973
0.000144341
0.0225439
0.00014397
0.0226913
0.000143589
0.0228394
0.000143198
0.0229881
0.000142796
0.0231375
0.000142385
0.0232874
0.000141963
0.023438
0.000141533
0.0235892
0.000141093
0.0237409
0.000140648
0.0238932
0.000140186
0.0240459
0.000139714
0.0241992
0.000139234
0.0243529
0.000138743
0.024507
0.000138244
0.0246616
0.000137735
0.0248165
0.000137217
0.0249719
0.000136691
0.0251275
0.000136156
0.0252835
0.000135613
0.0254398
0.000135062
0.0255964
0.000134501
0.0257533
0.000133932
0.0259103
0.000133353
0.0260676
0.000132765
0.026225
0.000132169
0.0263827
0.000131566
0.0265404
0.000130954
0.0266983
0.000130334
0.0268563
0.000129707
0.0270143
0.000129072
0.0271724
0.00012843
0.0273305
0.00012778
0.0274886
0.000127123
0.0276467
0.000126459
0.0278048
0.000125788
0.0279628
0.00012511
0.0281207
0.000124425
0.0282785
0.000123734
0.0284361
0.000123036
0.0285936
0.000122331
0.0287509
0.000121621
0.0289081
0.000120905
0.029065
0.000120182
0.0292217
0.000119454
0.0293781
0.00011872
0.0295342
0.000117981
0.02969
0.000117236
0.0298455
0.000116487
0.0300007
0.000115732
0.0301555
0.000114973
0.0303099
0.000114208
0.0304639
0.000113439
0.0306174
0.000112666
0.0307705
0.000111888
0.0309232
0.000111106
0.0310754
0.00011032
0.031227
0.000109531
0.0313781
0.000108738
0.0315287
0.000107942
0.0316787
0.000107142
0.0318282
0.000106337
0.031977
0.000105529
0.0321253
0.000104718
0.0322728
0.000103906
0.0324198
0.000103093
0.032566
0.00010228
0.0327116
0.000101463
0.0328565
0.000100642
0.0330006
9.98166e-05
0.033144
9.89877e-05
0.0332866
9.81587e-05
0.0334285
9.73307e-05
0.0335696
9.65012e-05
0.0337099
9.56698e-05
0.0338493
9.48354e-05
0.033988
9.39987e-05
0.0341257
9.3161e-05
0.0342627
9.23245e-05
0.0343987
9.14881e-05
0.0345338
9.0653e-05
0.0346681
8.98176e-05
0.0348014
8.89826e-05
0.0349338
8.81469e-05
0.0350652
8.73106e-05
0.0351956
8.64708e-05
0.0353251
8.56316e-05
0.0354537
8.47983e-05
0.0355812
8.39699e-05
0.0357077
8.31395e-05
0.0358331
8.23061e-05
0.0359576
8.14681e-05
0.036081
8.06299e-05
0.0362033
7.97993e-05
0.0363246
7.89739e-05
0.0364448
7.81501e-05
0.0365639
7.73265e-05
0.0366819
7.65045e-05
0.0367988
7.56829e-05
0.0369146
7.48629e-05
0.0370293
7.40453e-05
0.0371428
7.32301e-05
0.0372552
7.24189e-05
0.0373664
7.16104e-05
0.0374765
7.08054e-05
0.0375853
6.99999e-05
0.0376931
6.91927e-05
0.0377996
6.83861e-05
0.0379049
6.75878e-05
0.0380091
6.6798e-05
0.038112
6.60159e-05
0.0382137
6.52352e-05
0.0383142
6.44528e-05
0.0384134
6.3672e-05
0.0385114
6.28927e-05
0.0386082
6.21184e-05
0.0387037
6.13492e-05
0.038798
6.05885e-05
0.038891
5.98322e-05
0.0389828
5.90775e-05
0.0390732
5.83301e-05
0.0391624
5.75858e-05
0.0392503
5.6844e-05
0.039337
5.61031e-05
0.0394223
5.53699e-05
0.0395063
5.46408e-05
0.039589
5.3917e-05
0.0396704
5.31953e-05
0.0397506
5.24816e-05
0.0398293
5.17709e-05
0.0399068
5.10645e-05
0.039983
5.03662e-05
0.0400578
4.96746e-05
0.0401312
4.89868e-05
0.0402034
4.83044e-05
0.0402742
4.76242e-05
0.0403436
4.69462e-05
0.0404117
4.62761e-05
0.0404785
4.56106e-05
0.0405439
4.49454e-05
0.0406079
4.42902e-05
0.0406706
4.36442e-05
0.0407319
4.30044e-05
0.0407918
4.23731e-05
0.0408504
4.17389e-05
0.0409076
4.11124e-05
0.0409634
4.0492e-05
0.0410178
3.98747e-05
0.0410708
3.92601e-05
0.0411224
3.86533e-05
0.0411726
3.80485e-05
0.0412215
3.74467e-05
0.0412689
3.68633e-05
0.0413149
3.62807e-05
0.0413596
3.56992e-05
0.0414027
3.51224e-05
0.0414445
3.45441e-05
0.0414849
3.39793e-05
0.0415238
3.3427e-05
0.0415613
3.28714e-05
0.0415974
3.23249e-05
0.041632
3.17723e-05
0.0416652
3.12237e-05
0.041697
3.06711e-05
0.0417273
3.01325e-05
0.0417562
2.95893e-05
0.0417836
2.90568e-05
0.0418095
2.85047e-05
0.041834
2.79969e-05
0.0418571
2.74424e-05
0.0418786
2.69479e-05
0.0418988
2.6355e-05
0.0419174
2.59022e-05
0.0419347
2.5216e-05
0.0419503
2.48717e-05
0.0419647
2.40148e-05
0.0419774
2.38457e-05
0.0419889
2.27721e-05
0.0419986
2.28211e-05
0.0420074
2.1445e-05
0.042014
2.17297e-05
0.0420199
2.02381e-05
0.0420238
2.04865e-05
0.0420265
1.93074e-05
0.0420274
1.87203e-05
0.0420278
1.77078e-05
0.042026
1.56247e-05
0.0420237
1.3802e-05
0.0420233
2.58394e-06
1.63524e-06
0.000339676
-0.000395494
0.00144649
-0.00194091
0.00319884
-0.00353983
0.00538042
-0.00469151
0.0076022
-0.00492147
0.00956024
-0.00441956
0.0111055
-0.0033768
0.0121913
-0.00201441
0.0127486
-0.000527249
0.0126641
0.000993294
0.0119758
0.00230198
0.0107675
0.00326355
0.00915035
0.00380565
0.007356
0.00387987
0.00553371
0.00355571
0.00382837
0.00303708
0.00230992
0.00242927
0.000984536
0.00193076
-0.00027491
0.00171299
-0.00154497
0.00179472
-0.00299977
0.00220524
-0.00483048
0.00291616
-0.0071055
0.00386968
-0.00989639
0.00500981
-0.0131916
0.00626136
-0.0169206
0.00751869
-0.0209587
0.00866943
-0.0251675
0.00961833
-0.0293377
0.0102182
-0.0332967
0.0103671
-0.0368433
0.0100318
-0.0398942
0.00923385
-0.0422572
0.00798035
-0.0439609
0.00638292
-0.0448981
0.00445293
-0.0450607
0.00228442
-0.0444554
1.85007e-05
-0.0430641
-0.00229558
-0.0408812
-0.00456307
-0.0379245
-0.00670733
-0.0342478
-0.00868831
-0.0299119
-0.0103893
-0.0250165
-0.0117907
-0.0196669
-0.0127853
-0.0140067
-0.0133443
-0.00819238
-0.0133736
-0.00231592
-0.0129519
0.00330188
-0.0120894
0.00829391
-0.0107406
0.0125012
-0.00905351
0.0159597
-0.00727446
0.018771
-0.00553114
0.0209283
-0.00397808
0.0224122
-0.00266082
0.0228144
-0.00143838
0.0225126
-0.000595306
0.0213385
0.000125898
0.0197608
0.000419446
0.0179772
0.00102099
0.0155576
0.002458
0.0117343
0.00472786
0.00663551
0.00726126
0.000884993
0.00968034
-0.00539781
0.0118833
-0.0119208
0.0135174
-0.0183064
0.0144602
-0.0241347
0.0146536
-0.0292057
0.0143185
-0.0334334
0.0135874
-0.0369384
0.0125938
-0.0398198
0.0114094
-0.0421118
0.0100947
-0.0439029
0.00867789
-0.0452427
0.00724244
-0.0462931
0.00578374
-0.0469025
0.00426595
-0.047077
0.00248575
-0.0462856
0.000695562
-0.0447452
-0.00102437
-0.042814
-0.00259879
-0.0404469
-0.00410118
-0.0376483
-0.00556692
-0.0343899
-0.00698056
-0.0306999
-0.00833339
-0.0265993
-0.00957553
-0.0222015
-0.0106908
-0.0175229
-0.0116531
-0.0126038
-0.0124198
-0.00742237
-0.0130112
-0.002199
-0.0132931
0.00298923
-0.0134584
0.0081008
-0.0134556
0.0131935
-0.0133623
0.0181946
-0.0131233
0.0231165
-0.0128421
0.0279597
-0.0124606
0.032682
-0.0120148
0.0372409
-0.0114946
0.0416216
-0.0109249
0.0458349
-0.0103365
0.0498661
-0.00971378
0.0537251
-0.00910232
0.0574067
-0.0084355
0.0609028
-0.00774631
0.0642067
-0.0070387
0.0673127
-0.00629512
0.0702043
-0.00547273
0.0728799
-0.00461391
0.075268
-0.00376105
0.0773294
-0.00279448
0.0791057
-0.00168191
0.0805396
-0.0005683
0.0815406
0.000564207
0.0820234
0.00177295
0.0819574
0.00303287
0.0813118
0.00425309
0.0800369
0.00542572
0.0780769
0.00655025
0.0754112
0.00757693
0.0720707
0.00844808
0.0681215
0.00913663
0.0636819
0.00961451
0.0588906
0.00986197
0.0538973
0.0098813
0.0488657
0.00967671
0.0439551
0.00927236
0.0392917
0.00871433
0.0349745
0.00804654
0.0310753
0.00730665
0.0276267
0.00653909
0.0246309
0.00577914
0.0220576
0.00506203
0.0198554
0.00442207
0.0179595
0.00387292
0.0163128
0.00342524
0.0148701
0.00306568
0.0135954
0.00277342
0.0124587
0.0025374
0.0114389
0.0023395
0.0105221
0.00216534
0.00970145
0.00200106
0.00897588
0.00183594
0.00834843
0.00166258
0.00782264
0.00147636
0.00740025
0.00127671
0.00708342
0.00106382
0.00687155
0.000840486
0.00676444
0.000609868
0.00675276
0.000379158
0.00683461
0.00015315
0.0070084
-7.2374e-05
0.00727028
-0.000290317
0.00762197
-0.00049815
0.0080545
-0.000695056
0.0085632
-0.000877475
0.00913918
-0.00104458
0.00977594
-0.00119421
0.0104667
-0.0013266
0.0112065
-0.00144252
0.0119898
-0.00154239
0.0128089
-0.00162512
0.0136559
-0.00169046
0.0145241
-0.0017389
0.0154064
-0.00177059
0.0162955
-0.00178553
0.0171849
-0.00178489
0.0180684
-0.00176937
0.0189401
-0.00173983
0.0197945
-0.00169709
0.0206258
-0.00164165
0.0214289
-0.00157494
0.0221993
-0.00149839
0.0229333
-0.00141354
0.0236277
-0.0013222
0.0242799
-0.00122607
0.0248877
-0.0011266
0.02545
-0.00102518
0.0259666
-0.000923205
0.0264382
-0.00082202
0.0268657
-0.000722858
0.0272505
-0.000627053
0.0275944
-0.000535805
0.0278995
-0.000449844
0.0281681
-0.000369541
0.0284029
-0.00029511
0.0286065
-0.000226714
0.0287815
-0.000164412
0.0289309
-0.000108256
0.0290581
-5.82373e-05
0.0291659
-1.4278e-05
0.0292571
2.40982e-05
0.0293341
5.73875e-05
0.0293992
8.57627e-05
0.0294547
0.000109562
0.0295026
0.000129091
0.0295443
0.000144868
0.0295812
0.000157329
0.0296145
0.000166894
0.0296456
0.000173875
0.0296754
0.000178633
0.0297048
0.000181636
0.0297345
0.000183229
0.0297649
0.000183736
0.0297963
0.000183453
0.0298292
0.000182636
0.0298634
0.000181344
0.0298992
0.000179772
0.0299367
0.000178085
0.0299758
0.000176365
0.0300167
0.000174623
0.0300594
0.000172951
0.0301037
0.000171416
0.0301497
0.000170028
0.0301972
0.000168786
0.0302464
0.000167703
0.030297
0.00016678
0.0303492
0.000166005
0.0304028
0.000165369
0.0304578
0.000164857
0.0305142
0.000164456
0.030572
0.000164148
0.0306311
0.000163917
0.0306917
0.000163744
0.0307536
0.000163616
0.0308168
0.00016352
0.0308815
0.000163441
0.0309475
0.000163373
0.031015
0.000163307
0.0310839
0.000163236
0.0311542
0.000163159
0.031226
0.000163073
0.0312993
0.000162976
0.031374
0.000162873
0.0314503
0.00016276
0.0315281
0.000162641
0.0316073
0.000162521
0.0316882
0.000162397
0.0317705
0.000162274
0.0318544
0.000162157
0.0319398
0.000162041
0.0320268
0.000161941
0.0321153
0.000161845
0.0322053
0.000161756
0.0322969
0.000161676
0.03239
0.000161608
0.0324846
0.000161553
0.0325808
0.000161512
0.0326785
0.000161484
0.0327777
0.000161469
0.0328784
0.000161466
0.0329806
0.000161475
0.0330843
0.000161495
0.0331895
0.000161526
0.0332961
0.000161567
0.0334042
0.000161616
0.0335138
0.000161674
0.0336249
0.000161737
0.0337373
0.000161807
0.0338513
0.000161879
0.0339666
0.000161944
0.0340834
0.000162006
0.0342016
0.000162085
0.0343212
0.000162161
0.0344422
0.000162234
0.0345646
0.000162304
0.0346883
0.000162371
0.0348135
0.000162435
0.0349399
0.000162494
0.0350678
0.000162548
0.035197
0.000162597
0.0353275
0.000162639
0.0354593
0.000162674
0.0355924
0.000162702
0.0357269
0.000162722
0.0358626
0.000162734
0.0359996
0.000162738
0.0361378
0.000162732
0.0362773
0.000162719
0.036418
0.000162694
0.03656
0.000162659
0.0367031
0.000162617
0.0368474
0.000162568
0.0369929
0.000162511
0.0371396
0.000162444
0.0372874
0.000162367
0.0374363
0.000162282
0.0375864
0.000162187
0.0377375
0.000162082
0.0378897
0.000161967
0.038043
0.00016184
0.0381973
0.000161703
0.0383526
0.000161556
0.0385089
0.000161398
0.0386662
0.00016123
0.0388245
0.000161052
0.0389837
0.000160863
0.0391438
0.000160663
0.0393049