/*--------------------------------*- C++ -*----------------------------------*\
| =========                 |                                                 |
| \\      /  F ield         | OpenFOAM: The Open Source CFD Toolbox           |
|  \\    /   O peration     | Version:  v1812                                 |
|   \\  /    A nd           | Web:      www.OpenFOAM.com                      |
|    \\/     M anipulation  |                                                 |
\*---------------------------------------------------------------------------*/
FoamFile
{
    version     2.0;
    format      ascii;
    class       volScalarField;
    location    "0.5";
    object      T;
}
// * * * * * * * * * * * * * * * * * * * * * * * * * * * * * * * * * * * * * //

dimensions      [0 0 0 1 0 0 0];


internalField   nonuniform List<scalar> 
20400
(
287.804
287.735
287.624
287.501
287.384
287.281
287.194
287.122
287.059
287.007
286.967
286.945
286.94
286.954
286.989
287.044
287.113
287.19
287.268
287.341
287.405
287.455
287.493
287.515
287.524
287.518
287.5
287.471
287.435
287.396
287.355
287.317
287.281
287.249
287.221
287.197
287.179
287.163
287.156
287.15
287.15
287.148
287.147
287.146
287.143
287.149
287.164
287.214
287.314
287.481
287.735
288.09
288.538
289.06
289.638
290.242
290.835
291.37
291.795
292.073
292.204
292.212
292.177
292.079
291.926
291.752
291.568
291.386
291.208
291.043
290.894
290.763
290.647
290.545
290.457
290.38
290.316
290.262
290.215
290.174
290.139
290.113
290.102
290.102
290.119
290.149
290.19
290.241
290.301
290.371
290.42
290.486
290.564
290.646
290.735
290.836
290.943
291.05
291.156
291.261
291.362
291.456
291.542
291.615
291.672
291.706
291.714
291.696
291.63
291.508
291.334
291.113
290.858
290.584
290.301
290.02
289.752
289.506
289.293
289.117
288.975
288.865
288.782
288.725
288.689
288.669
288.661
288.661
288.667
288.677
288.69
288.705
288.719
288.734
288.748
288.761
288.773
288.784
288.794
288.804
288.814
288.823
288.832
288.841
288.85
288.86
288.871
288.883
288.897
288.911
288.928
288.945
288.964
288.985
289.006
289.029
289.054
289.079
289.105
289.132
289.16
289.188
289.216
289.244
289.272
289.3
289.327
289.354
289.379
289.404
289.428
289.451
289.472
289.493
289.512
289.53
289.546
289.562
289.576
289.59
289.602
289.614
289.625
289.635
289.644
289.652
289.66
289.668
289.675
289.682
289.688
289.695
289.701
289.706
289.712
289.718
289.723
289.729
289.734
289.739
289.745
289.75
289.756
289.762
289.767
289.773
289.779
289.785
289.791
289.797
289.804
289.81
289.817
289.823
289.83
289.837
289.844
289.851
289.858
289.866
289.873
289.881
289.889
289.897
289.905
289.913
289.921
289.93
289.938
289.947
289.956
289.965
289.975
289.984
289.994
290.003
290.013
290.023
290.033
290.044
290.054
290.065
290.076
290.087
290.098
290.109
290.121
290.132
290.144
290.156
290.168
290.18
290.193
290.205
290.218
290.231
290.244
290.257
290.271
290.284
290.298
290.312
290.326
290.34
290.354
290.369
290.383
290.398
290.413
290.428
290.444
290.459
290.474
290.49
290.506
290.522
290.538
290.554
290.571
290.587
290.604
290.62
290.637
290.654
290.672
290.689
290.706
290.724
290.741
290.759
290.777
290.795
290.813
290.831
290.849
290.868
290.886
290.905
290.923
290.942
290.961
290.98
290.999
291.018
291.037
291.056
291.075
291.095
291.114
291.133
291.153
291.173
291.192
291.212
291.232
291.251
291.271
291.291
291.311
291.331
291.351
291.371
291.391
291.411
291.431
291.452
291.472
291.492
291.512
291.532
291.553
291.573
291.593
291.613
291.633
291.654
291.674
291.694
291.714
291.734
291.755
291.775
291.795
291.815
291.835
291.855
291.875
291.895
291.915
291.935
291.955
291.975
291.995
292.014
292.034
292.054
292.073
292.093
292.112
292.132
292.151
292.17
292.19
292.209
292.228
292.247
292.266
292.285
292.304
292.322
292.341
292.359
292.378
292.396
292.415
292.433
292.451
292.469
292.487
292.505
292.522
292.54
292.558
292.575
292.592
292.61
292.627
292.644
292.661
292.678
292.694
292.711
292.727
292.744
292.76
292.776
292.792
292.808
292.824
292.839
292.855
292.87
292.886
292.901
292.916
292.931
292.946
292.961
292.975
292.99
293.004
293.018
293.032
293.046
293.06
293.074
293.088
293.101
293.114
293.128
293.141
293.154
293.167
293.18
293.192
293.205
293.217
293.23
293.242
293.254
293.266
293.278
293.289
293.301
293.312
293.324
293.335
293.346
293.357
293.368
293.379
293.39
293.401
293.411
293.422
293.432
293.442
293.452
293.463
293.472
293.482
293.492
293.502
293.511
293.521
293.53
293.54
293.549
293.558
293.567
293.576
293.585
293.594
293.603
293.612
293.621
293.629
293.638
293.646
293.655
293.663
293.672
293.68
293.688
293.696
293.704
293.713
293.721
293.729
293.737
293.744
293.752
293.76
293.768
293.776
293.784
293.791
293.799
293.807
293.814
293.821
293.827
293.833
293.84
293.847
293.852
293.856
293.855
293.846
293.827
287.641
287.548
287.406
287.259
287.134
287.037
286.967
286.922
286.892
286.871
286.858
286.854
286.86
286.88
286.917
286.975
287.048
287.131
287.215
287.291
287.355
287.403
287.435
287.449
287.449
287.431
287.399
287.358
287.309
287.259
287.208
287.163
287.124
287.094
287.076
287.069
287.079
287.101
287.135
287.176
287.227
287.282
287.336
287.38
287.408
287.415
287.412
287.399
287.397
287.413
287.473
287.592
287.786
288.08
288.503
289.081
289.808
290.623
291.378
291.898
292.117
292.126
292.053
291.87
291.638
291.385
291.125
290.866
290.615
290.372
290.14
289.92
289.713
289.518
289.336
289.169
289.019
288.886
288.769
288.671
288.6
288.549
288.514
288.492
288.482
288.484
288.497
288.519
288.546
288.576
288.608
288.647
288.694
288.747
288.808
288.884
288.971
289.067
289.172
289.285
289.408
289.538
289.678
289.826
289.982
290.145
290.316
290.491
290.665
290.832
290.963
291.024
291.029
291.014
290.966
290.872
290.725
290.527
290.297
290.062
289.834
289.609
289.388
289.19
289.027
288.899
288.802
288.731
288.679
288.641
288.618
288.604
288.598
288.596
288.599
288.605
288.612
288.617
288.621
288.624
288.625
288.624
288.622
288.619
288.615
288.611
288.607
288.603
288.6
288.598
288.598
288.601
288.606
288.614
288.625
288.639
288.656
288.676
288.699
288.725
288.754
288.785
288.819
288.854
288.891
288.93
288.969
289.01
289.05
289.09
289.13
289.17
289.208
289.245
289.281
289.314
289.347
289.377
289.406
289.432
289.457
289.48
289.501
289.521
289.539
289.555
289.57
289.584
289.597
289.609
289.62
289.63
289.639
289.648
289.656
289.664
289.671
289.678
289.685
289.691
289.698
289.704
289.71
289.716
289.723
289.729
289.735
289.741
289.747
289.753
289.76
289.766
289.773
289.779
289.786
289.793
289.8
289.807
289.814
289.822
289.829
289.837
289.844
289.852
289.86
289.868
289.876
289.885
289.893
289.902
289.911
289.92
289.929
289.938
289.947
289.957
289.967
289.976
289.986
289.997
290.007
290.017
290.028
290.039
290.05
290.061
290.072
290.083
290.095
290.107
290.119
290.131
290.143
290.155
290.168
290.18
290.193
290.206
290.219
290.233
290.246
290.26
290.274
290.288
290.302
290.316
290.33
290.345
290.36
290.375
290.39
290.405
290.42
290.436
290.451
290.467
290.483
290.499
290.515
290.531
290.548
290.564
290.581
290.598
290.615
290.632
290.649
290.666
290.684
290.701
290.719
290.737
290.755
290.773
290.791
290.809
290.827
290.846
290.864
290.883
290.901
290.92
290.939
290.958
290.977
290.996
291.015
291.034
291.054
291.073
291.092
291.112
291.131
291.151
291.171
291.19
291.21
291.23
291.25
291.269
291.289
291.309
291.329
291.349
291.369
291.389
291.409
291.429
291.449
291.469
291.489
291.509
291.529
291.549
291.57
291.59
291.61
291.63
291.65
291.67
291.69
291.71
291.73
291.75
291.77
291.789
291.809
291.829
291.849
291.869
291.888
291.908
291.928
291.947
291.967
291.986
292.006
292.025
292.044
292.063
292.083
292.102
292.121
292.14
292.159
292.177
292.196
292.215
292.233
292.252
292.27
292.289
292.307
292.325
292.343
292.361
292.379
292.397
292.415
292.432
292.45
292.467
292.485
292.502
292.519
292.536
292.553
292.57
292.587
292.603
292.62
292.636
292.653
292.669
292.685
292.701
292.717
292.732
292.748
292.763
292.779
292.794
292.809
292.824
292.839
292.854
292.869
292.883
292.898
292.912
292.926
292.94
292.954
292.968
292.982
292.995
293.009
293.022
293.035
293.048
293.061
293.074
293.087
293.1
293.112
293.124
293.137
293.149
293.161
293.173
293.185
293.196
293.208
293.219
293.231
293.242
293.253
293.264
293.275
293.286
293.297
293.307
293.318
293.328
293.338
293.349
293.359
293.369
293.379
293.389
293.398
293.408
293.417
293.427
293.436
293.446
293.455
293.464
293.473
293.482
293.491
293.5
293.509
293.517
293.526
293.535
293.543
293.552
293.56
293.568
293.577
293.585
293.593
293.601
293.609
293.617
293.625
293.633
293.641
293.649
293.657
293.665
293.673
293.681
293.688
293.696
293.704
293.712
293.719
293.727
293.734
293.741
293.748
293.754
293.76
293.766
293.772
293.775
293.77
293.758
287.338
287.205
287.02
286.849
286.721
286.637
286.59
286.575
286.582
286.601
286.63
286.663
286.701
286.744
286.796
286.863
286.944
287.033
287.121
287.198
287.259
287.301
287.323
287.328
287.309
287.27
287.216
287.151
287.08
287.007
286.939
286.878
286.831
286.8
286.787
286.797
286.831
286.887
286.966
287.065
287.18
287.3
287.42
287.534
287.639
287.736
287.792
287.798
287.752
287.676
287.608
287.577
287.595
287.676
287.877
288.274
288.962
289.939
290.993
291.746
292.014
291.97
291.751
291.431
291.077
290.705
290.332
289.965
289.614
289.283
288.976
288.698
288.452
288.239
288.06
287.913
287.799
287.716
287.66
287.627
287.608
287.6
287.598
287.604
287.612
287.623
287.634
287.642
287.647
287.647
287.642
287.63
287.615
287.596
287.577
287.565
287.561
287.565
287.579
287.605
287.645
287.699
287.769
287.854
287.955
288.076
288.218
288.382
288.567
288.778
289.022
289.3
289.594
289.879
290.135
290.346
290.502
290.614
290.684
290.696
290.675
290.596
290.433
290.207
289.954
289.69
289.435
289.208
289.017
288.866
288.746
288.647
288.56
288.492
288.445
288.413
288.39
288.371
288.356
288.343
288.329
288.311
288.29
288.267
288.241
288.213
288.183
288.151
288.118
288.086
288.055
288.026
288
287.978
287.96
287.947
287.939
287.937
287.941
287.951
287.968
287.99
288.019
288.054
288.095
288.141
288.193
288.249
288.308
288.371
288.437
288.504
288.572
288.641
288.708
288.775
288.841
288.904
288.964
289.022
289.077
289.129
289.177
289.222
289.264
289.302
289.337
289.37
289.399
289.426
289.451
289.473
289.494
289.512
289.529
289.544
289.558
289.571
289.583
289.594
289.604
289.614
289.623
289.631
289.639
289.647
289.654
289.662
289.669
289.676
289.682
289.689
289.696
289.703
289.71
289.717
289.724
289.731
289.738
289.745
289.753
289.76
289.768
289.775
289.783
289.791
289.799
289.807
289.816
289.824
289.833
289.842
289.851
289.86
289.869
289.878
289.887
289.897
289.907
289.917
289.927
289.937
289.947
289.958
289.968
289.979
289.99
290.001
290.012
290.024
290.035
290.047
290.059
290.071
290.083
290.095
290.108
290.12
290.133
290.146
290.159
290.173
290.186
290.2
290.213
290.227
290.241
290.255
290.27
290.284
290.299
290.314
290.329
290.344
290.359
290.374
290.39
290.406
290.421
290.437
290.453
290.47
290.486
290.502
290.519
290.536
290.553
290.57
290.587
290.604
290.621
290.639
290.657
290.674
290.692
290.71
290.728
290.746
290.764
290.783
290.801
290.82
290.838
290.857
290.876
290.895
290.913
290.932
290.952
290.971
290.99
291.009
291.029
291.048
291.067
291.087
291.106
291.126
291.146
291.165
291.185
291.205
291.225
291.244
291.264
291.284
291.304
291.324
291.344
291.364
291.383
291.403
291.423
291.443
291.463
291.483
291.503
291.523
291.543
291.563
291.582
291.602
291.622
291.642
291.661
291.681
291.701
291.72
291.74
291.76
291.779
291.799
291.818
291.837
291.857
291.876
291.895
291.914
291.933
291.953
291.971
291.99
292.009
292.028
292.047
292.065
292.084
292.102
292.121
292.139
292.157
292.175
292.194
292.211
292.229
292.247
292.265
292.283
292.3
292.317
292.335
292.352
292.369
292.386
292.403
292.42
292.437
292.453
292.47
292.486
292.503
292.519
292.535
292.551
292.567
292.583
292.598
292.614
292.629
292.645
292.66
292.675
292.69
292.705
292.719
292.734
292.748
292.763
292.777
292.791
292.805
292.819
292.833
292.846
292.86
292.873
292.887
292.9
292.913
292.926
292.939
292.951
292.964
292.976
292.989
293.001
293.013
293.025
293.037
293.049
293.06
293.072
293.083
293.095
293.106
293.117
293.128
293.139
293.149
293.16
293.171
293.181
293.191
293.202
293.212
293.222
293.232
293.242
293.251
293.261
293.271
293.28
293.29
293.299
293.308
293.317
293.326
293.335
293.344
293.353
293.362
293.37
293.379
293.388
293.396
293.405
293.413
293.421
293.43
293.438
293.446
293.454
293.462
293.47
293.478
293.486
293.494
293.502
293.51
293.517
293.525
293.533
293.541
293.548
293.556
293.564
293.571
293.579
293.587
293.594
293.602
293.609
293.616
293.622
293.628
293.635
293.641
293.644
293.642
293.635
286.969
286.814
286.626
286.475
286.376
286.318
286.293
286.292
286.305
286.334
286.378
286.435
286.499
286.569
286.645
286.73
286.823
286.919
287.01
287.085
287.14
287.173
287.184
287.169
287.125
287.057
286.968
286.866
286.754
286.64
286.529
286.424
286.333
286.256
286.202
286.169
286.155
286.185
286.257
286.379
286.551
286.772
287.033
287.315
287.585
287.81
287.987
288.12
288.2
288.175
288.064
287.92
287.818
287.799
287.863
288.12
288.719
289.722
290.898
291.703
291.893
291.717
291.313
290.852
290.371
289.89
289.427
288.995
288.609
288.277
288
287.781
287.614
287.497
287.419
287.377
287.358
287.352
287.363
287.379
287.401
287.427
287.455
287.482
287.506
287.526
287.539
287.546
287.546
287.538
287.518
287.486
287.442
287.388
287.323
287.247
287.165
287.086
287.012
286.947
286.894
286.859
286.844
286.845
286.861
286.896
286.952
287.027
287.121
287.239
287.385
287.562
287.781
288.051
288.372
288.738
289.135
289.532
289.891
290.185
290.407
290.568
290.687
290.726
290.702
290.606
290.423
290.175
289.89
289.602
289.331
289.084
288.872
288.698
288.558
288.44
288.333
288.243
288.172
288.115
288.065
288.015
287.963
287.911
287.857
287.8
287.74
287.676
287.608
287.539
287.469
287.399
287.332
287.268
287.208
287.154
287.107
287.066
287.035
287.011
286.997
286.993
286.995
287.007
287.03
287.063
287.106
287.158
287.219
287.29
287.369
287.455
287.547
287.644
287.745
287.849
287.954
288.06
288.164
288.267
288.368
288.465
288.558
288.647
288.731
288.81
288.885
288.953
289.017
289.076
289.131
289.18
289.226
289.267
289.304
289.338
289.369
289.397
289.423
289.446
289.466
289.485
289.502
289.518
289.532
289.545
289.557
289.568
289.578
289.587
289.596
289.605
289.613
289.621
289.628
289.636
289.644
289.651
289.659
289.666
289.674
289.681
289.689
289.697
289.705
289.713
289.721
289.729
289.737
289.746
289.754
289.763
289.772
289.781
289.79
289.799
289.808
289.818
289.827
289.837
289.847
289.857
289.867
289.877
289.888
289.898
289.909
289.92
289.931
289.942
289.953
289.965
289.976
289.988
290
290.012
290.024
290.037
290.049
290.062
290.074
290.087
290.1
290.114
290.127
290.141
290.154
290.168
290.182
290.196
290.211
290.225
290.24
290.254
290.269
290.284
290.299
290.315
290.33
290.346
290.361
290.377
290.393
290.409
290.426
290.442
290.459
290.475
290.492
290.509
290.526
290.543
290.56
290.578
290.595
290.613
290.631
290.648
290.666
290.684
290.703
290.721
290.739
290.758
290.776
290.795
290.813
290.832
290.851
290.87
290.889
290.908
290.927
290.946
290.966
290.985
291.004
291.024
291.043
291.063
291.082
291.102
291.122
291.141
291.161
291.181
291.201
291.22
291.24
291.26
291.28
291.299
291.319
291.339
291.359
291.379
291.398
291.418
291.438
291.458
291.477
291.497
291.517
291.537
291.556
291.576
291.595
291.615
291.634
291.654
291.673
291.692
291.712
291.731
291.75
291.769
291.788
291.807
291.826
291.845
291.864
291.883
291.901
291.92
291.939
291.957
291.975
291.994
292.012
292.03
292.048
292.066
292.084
292.102
292.119
292.137
292.155
292.172
292.189
292.207
292.224
292.241
292.258
292.275
292.291
292.308
292.325
292.341
292.357
292.373
292.39
292.406
292.422
292.437
292.453
292.469
292.484
292.499
292.515
292.53
292.545
292.56
292.574
292.589
292.604
292.618
292.632
292.646
292.66
292.674
292.688
292.702
292.716
292.729
292.742
292.756
292.769
292.782
292.795
292.807
292.82
292.832
292.845
292.857
292.869
292.881
292.893
292.905
292.917
292.928
292.94
292.951
292.962
292.974
292.985
292.996
293.006
293.017
293.028
293.038
293.049
293.059
293.069
293.079
293.089
293.099
293.109
293.118
293.128
293.137
293.147
293.156
293.165
293.175
293.184
293.193
293.201
293.21
293.219
293.228
293.236
293.245
293.253
293.262
293.27
293.278
293.286
293.294
293.303
293.311
293.319
293.326
293.334
293.342
293.35
293.358
293.365
293.373
293.381
293.388
293.396
293.404
293.411
293.419
293.426
293.434
293.441
293.449
293.456
293.464
293.471
293.478
293.485
293.492
293.498
293.503
293.509
293.515
293.514
293.511
286.629
286.494
286.353
286.255
286.198
286.169
286.159
286.159
286.164
286.179
286.208
286.254
286.318
286.398
286.491
286.593
286.701
286.806
286.899
286.97
287.014
287.034
287.027
286.984
286.904
286.792
286.652
286.491
286.315
286.132
285.949
285.772
285.606
285.455
285.331
285.236
285.176
285.153
285.177
285.246
285.37
285.562
285.837
286.206
286.665
287.188
287.705
288.123
288.388
288.553
288.603
288.509
288.336
288.207
288.204
288.356
288.866
289.827
290.971
291.683
291.737
291.388
290.825
290.24
289.66
289.112
288.62
288.206
287.875
287.626
287.451
287.338
287.273
287.241
287.231
287.242
287.262
287.292
287.328
287.368
287.413
287.458
287.507
287.555
287.603
287.643
287.673
287.691
287.694
287.687
287.664
287.62
287.554
287.465
287.36
287.24
287.112
286.981
286.848
286.721
286.605
286.506
286.427
286.374
286.349
286.348
286.355
286.375
286.409
286.459
286.528
286.618
286.733
286.88
287.067
287.305
287.603
287.965
288.382
288.836
289.299
289.748
290.13
290.416
290.615
290.769
290.849
290.837
290.755
290.582
290.323
290.011
289.683
289.364
289.068
288.805
288.583
288.401
288.254
288.128
288.009
287.898
287.795
287.7
287.607
287.514
287.417
287.317
287.215
287.112
287.007
286.902
286.798
286.698
286.601
286.511
286.427
286.35
286.282
286.222
286.17
286.128
286.094
286.07
286.057
286.054
286.058
286.073
286.103
286.146
286.202
286.27
286.351
286.446
286.551
286.667
286.79
286.921
287.056
287.196
287.337
287.479
287.62
287.758
287.893
288.024
288.15
288.27
288.383
288.49
288.591
288.685
288.772
288.852
288.927
288.995
289.058
289.115
289.167
289.214
289.257
289.296
289.331
289.363
289.391
289.416
289.439
289.46
289.478
289.494
289.509
289.523
289.535
289.546
289.556
289.566
289.575
289.584
289.593
289.601
289.61
289.618
289.626
289.634
289.642
289.65
289.659
289.667
289.676
289.684
289.693
289.702
289.711
289.72
289.729
289.738
289.748
289.757
289.767
289.777
289.787
289.797
289.807
289.817
289.827
289.838
289.849
289.859
289.87
289.881
289.893
289.904
289.915
289.927
289.939
289.951
289.963
289.975
289.987
290
290.012
290.025
290.038
290.051
290.064
290.077
290.091
290.104
290.118
290.132
290.146
290.16
290.174
290.189
290.203
290.218
290.233
290.248
290.263
290.278
290.293
290.309
290.325
290.34
290.356
290.372
290.388
290.405
290.421
290.438
290.454
290.471
290.488
290.505
290.522
290.54
290.557
290.575
290.592
290.61
290.628
290.646
290.664
290.682
290.7
290.719
290.737
290.756
290.774
290.793
290.812
290.831
290.85
290.869
290.888
290.907
290.926
290.945
290.965
290.984
291.003
291.023
291.042
291.062
291.081
291.101
291.121
291.14
291.16
291.18
291.199
291.219
291.239
291.259
291.278
291.298
291.318
291.337
291.357
291.377
291.396
291.416
291.436
291.455
291.475
291.494
291.514
291.533
291.553
291.572
291.591
291.611
291.63
291.649
291.668
291.687
291.706
291.725
291.744
291.763
291.781
291.8
291.818
291.837
291.855
291.874
291.892
291.91
291.928
291.946
291.964
291.982
292
292.017
292.035
292.052
292.07
292.087
292.104
292.121
292.138
292.155
292.172
292.189
292.205
292.222
292.238
292.254
292.27
292.286
292.302
292.318
292.334
292.35
292.365
292.38
292.396
292.411
292.426
292.441
292.456
292.47
292.485
292.499
292.514
292.528
292.542
292.556
292.57
292.584
292.597
292.611
292.624
292.638
292.651
292.664
292.677
292.69
292.702
292.715
292.727
292.74
292.752
292.764
292.776
292.788
292.8
292.811
292.823
292.834
292.846
292.857
292.868
292.879
292.89
292.9
292.911
292.922
292.932
292.942
292.953
292.963
292.973
292.983
292.992
293.002
293.012
293.021
293.031
293.04
293.049
293.059
293.068
293.077
293.085
293.094
293.103
293.112
293.12
293.129
293.137
293.146
293.154
293.162
293.17
293.178
293.186
293.194
293.202
293.21
293.218
293.226
293.233
293.241
293.249
293.256
293.264
293.271
293.279
293.286
293.294
293.301
293.309
293.316
293.323
293.331
293.338
293.345
293.353
293.36
293.367
293.375
293.382
293.388
293.394
293.399
293.405
293.41
293.412
293.41
286.388
286.3
286.219
286.169
286.144
286.134
286.133
286.133
286.134
286.136
286.144
286.165
286.206
286.272
286.363
286.473
286.592
286.706
286.8
286.863
286.891
286.893
286.856
286.775
286.645
286.471
286.261
286.024
285.775
285.527
285.296
285.093
284.926
284.788
284.69
284.623
284.584
284.561
284.552
284.559
284.588
284.65
284.766
284.972
285.295
285.775
286.426
287.207
287.988
288.568
288.871
289.023
288.995
288.862
288.777
288.855
289.254
290.103
291.103
291.65
291.569
291.055
290.365
289.685
289.047
288.486
288.029
287.681
287.437
287.28
287.19
287.146
287.132
287.141
287.161
287.189
287.219
287.251
287.287
287.327
287.374
287.429
287.489
287.553
287.616
287.674
287.721
287.754
287.768
287.766
287.75
287.711
287.642
287.541
287.412
287.266
287.099
286.918
286.733
286.557
286.398
286.263
286.155
286.076
286.029
286.013
286.013
286.018
286.034
286.062
286.106
286.164
286.239
286.331
286.444
286.581
286.749
286.959
287.223
287.551
287.952
288.416
288.919
289.426
289.904
290.309
290.606
290.814
290.978
291.048
291.021
290.913
290.695
290.382
290.014
289.628
289.256
288.922
288.634
288.391
288.19
288.021
287.874
287.739
287.607
287.47
287.332
287.194
287.058
286.923
286.792
286.664
286.541
286.422
286.309
286.201
286.1
286.006
285.919
285.839
285.766
285.698
285.636
285.579
285.526
285.478
285.436
285.401
285.375
285.359
285.354
285.358
285.377
285.418
285.479
285.556
285.648
285.756
285.88
286.018
286.166
286.322
286.485
286.652
286.822
286.992
287.161
287.328
287.491
287.649
287.801
287.947
288.085
288.217
288.34
288.456
288.564
288.665
288.758
288.844
288.923
288.995
289.061
289.122
289.176
289.225
289.269
289.309
289.344
289.375
289.402
289.427
289.448
289.467
289.484
289.499
289.513
289.525
289.537
289.547
289.557
289.567
289.576
289.585
289.594
289.603
289.612
289.62
289.629
289.638
289.647
289.656
289.665
289.675
289.684
289.694
289.703
289.713
289.723
289.733
289.743
289.753
289.764
289.774
289.785
289.795
289.806
289.817
289.828
289.839
289.85
289.862
289.873
289.885
289.897
289.908
289.92
289.933
289.945
289.957
289.97
289.982
289.995
290.008
290.021
290.034
290.048
290.061
290.075
290.088
290.102
290.116
290.13
290.144
290.159
290.173
290.188
290.203
290.217
290.232
290.247
290.263
290.278
290.294
290.309
290.325
290.341
290.357
290.373
290.389
290.406
290.422
290.439
290.455
290.472
290.489
290.506
290.524
290.541
290.558
290.576
290.594
290.611
290.629
290.647
290.665
290.683
290.702
290.72
290.739
290.757
290.776
290.794
290.813
290.832
290.851
290.87
290.889
290.908
290.928
290.947
290.966
290.985
291.005
291.024
291.044
291.063
291.083
291.102
291.122
291.142
291.161
291.181
291.201
291.22
291.24
291.26
291.279
291.299
291.319
291.338
291.358
291.377
291.397
291.416
291.436
291.455
291.475
291.494
291.514
291.533
291.552
291.571
291.59
291.609
291.628
291.647
291.666
291.685
291.704
291.722
291.741
291.759
291.778
291.796
291.815
291.833
291.851
291.869
291.887
291.905
291.922
291.94
291.958
291.975
291.992
292.01
292.027
292.044
292.061
292.078
292.094
292.111
292.128
292.144
292.16
292.177
292.193
292.209
292.225
292.241
292.256
292.272
292.287
292.303
292.318
292.333
292.348
292.363
292.378
292.392
292.407
292.421
292.436
292.45
292.464
292.478
292.492
292.505
292.519
292.533
292.546
292.559
292.572
292.585
292.598
292.611
292.624
292.636
292.649
292.661
292.673
292.685
292.697
292.709
292.721
292.733
292.744
292.756
292.767
292.778
292.789
292.8
292.811
292.822
292.832
292.843
292.853
292.863
292.874
292.884
292.894
292.904
292.913
292.923
292.933
292.942
292.952
292.961
292.97
292.979
292.988
292.997
293.006
293.015
293.024
293.032
293.041
293.049
293.058
293.066
293.074
293.082
293.09
293.099
293.106
293.114
293.122
293.13
293.138
293.145
293.153
293.161
293.168
293.176
293.183
293.191
293.198
293.205
293.213
293.22
293.227
293.235
293.242
293.249
293.256
293.264
293.271
293.278
293.285
293.292
293.3
293.306
293.313
293.319
293.323
293.328
293.335
293.338
293.337
286.257
286.214
286.177
286.151
286.142
286.15
286.164
286.174
286.173
286.164
286.154
286.154
286.167
286.206
286.279
286.384
286.506
286.624
286.713
286.762
286.771
286.743
286.668
286.535
286.341
286.097
285.818
285.527
285.254
285.021
284.837
284.705
284.62
284.565
284.527
284.504
284.492
284.476
284.455
284.43
284.409
284.397
284.393
284.409
284.494
284.691
285.066
285.688
286.576
287.643
288.617
289.178
289.44
289.519
289.485
289.517
289.809
290.489
291.26
291.596
291.41
290.777
289.983
289.237
288.579
288.042
287.638
287.361
287.189
287.094
287.049
287.036
287.041
287.056
287.071
287.082
287.088
287.093
287.103
287.122
287.157
287.211
287.286
287.381
287.488
287.596
287.691
287.755
287.781
287.783
287.772
287.736
287.666
287.556
287.404
287.211
286.99
286.76
286.536
286.328
286.149
286.003
285.893
285.82
285.783
285.772
285.774
285.785
285.81
285.851
285.907
285.974
286.053
286.139
286.233
286.336
286.45
286.582
286.736
286.924
287.158
287.452
287.815
288.254
288.758
289.294
289.819
290.294
290.671
290.939
291.148
291.277
291.274
291.199
290.995
290.671
290.267
289.83
289.403
289.015
288.683
288.407
288.176
287.978
287.801
287.637
287.481
287.328
287.178
287.027
286.878
286.73
286.589
286.456
286.331
286.215
286.108
286.01
285.92
285.837
285.758
285.684
285.612
285.541
285.47
285.398
285.326
285.253
285.182
285.113
285.049
284.99
284.938
284.893
284.865
284.857
284.864
284.893
284.954
285.039
285.142
285.264
285.403
285.557
285.722
285.897
286.079
286.265
286.454
286.644
286.833
287.019
287.201
287.379
287.55
287.715
287.873
288.022
288.164
288.298
288.423
288.54
288.649
288.75
288.843
288.928
289.006
289.076
289.139
289.195
289.245
289.289
289.328
289.362
289.392
289.418
289.441
289.461
289.478
289.494
289.507
289.52
289.532
289.543
289.553
289.563
289.573
289.582
289.591
289.601
289.61
289.62
289.629
289.639
289.649
289.659
289.669
289.679
289.689
289.699
289.709
289.72
289.731
289.741
289.752
289.763
289.774
289.785
289.796
289.808
289.819
289.831
289.842
289.854
289.866
289.878
289.89
289.902
289.915
289.927
289.94
289.952
289.965
289.978
289.991
290.004
290.018
290.031
290.044
290.058
290.072
290.086
290.1
290.114
290.128
290.142
290.157
290.172
290.186
290.201
290.216
290.231
290.246
290.262
290.277
290.293
290.308
290.324
290.34
290.356
290.372
290.388
290.405
290.421
290.438
290.454
290.471
290.488
290.505
290.522
290.54
290.557
290.574
290.592
290.61
290.628
290.645
290.663
290.682
290.7
290.718
290.736
290.755
290.773
290.792
290.811
290.83
290.849
290.868
290.887
290.906
290.925
290.944
290.963
290.983
291.002
291.021
291.041
291.06
291.08
291.099
291.119
291.138
291.158
291.178
291.197
291.217
291.237
291.256
291.276
291.295
291.315
291.335
291.354
291.374
291.393
291.413
291.432
291.451
291.471
291.49
291.509
291.528
291.548
291.567
291.586
291.605
291.623
291.642
291.661
291.68
291.698
291.717
291.735
291.754
291.772
291.79
291.808
291.826
291.844
291.862
291.88
291.897
291.915
291.932
291.949
291.967
291.984
292.001
292.018
292.034
292.051
292.068
292.084
292.101
292.117
292.133
292.149
292.165
292.181
292.196
292.212
292.228
292.243
292.258
292.273
292.288
292.303
292.318
292.333
292.347
292.362
292.376
292.39
292.404
292.418
292.432
292.446
292.46
292.473
292.486
292.5
292.513
292.526
292.539
292.552
292.564
292.577
292.589
292.602
292.614
292.626
292.638
292.65
292.662
292.673
292.685
292.696
292.707
292.719
292.73
292.741
292.752
292.762
292.773
292.783
292.794
292.804
292.814
292.824
292.834
292.844
292.854
292.864
292.873
292.883
292.892
292.902
292.911
292.92
292.929
292.938
292.947
292.956
292.964
292.973
292.982
292.99
292.998
293.007
293.015
293.023
293.031
293.039
293.047
293.055
293.063
293.071
293.079
293.086
293.094
293.101
293.109
293.116
293.124
293.131
293.138
293.146
293.153
293.16
293.168
293.175
293.182
293.189
293.196
293.203
293.211
293.218
293.225
293.232
293.239
293.246
293.253
293.259
293.265
293.268
293.274
293.281
293.285
293.285
286.208
286.192
286.174
286.166
286.173
286.194
286.22
286.238
286.238
286.222
286.193
286.17
286.169
286.189
286.243
286.334
286.449
286.561
286.638
286.666
286.648
286.581
286.456
286.264
286.007
285.709
285.404
285.135
284.94
284.821
284.762
284.733
284.724
284.771
284.831
284.893
284.926
284.916
284.862
284.769
284.648
284.518
284.403
284.332
284.3
284.297
284.377
284.623
285.137
286.013
287.245
288.549
289.452
289.872
290.081
290.192
290.415
290.887
291.393
291.542
291.304
290.628
289.767
288.967
288.294
287.772
287.404
287.167
287.035
286.967
286.938
286.931
286.934
286.936
286.928
286.911
286.89
286.871
286.863
286.868
286.895
286.951
287.037
287.153
287.294
287.446
287.588
287.695
287.75
287.76
287.752
287.714
287.625
287.479
287.278
287.038
286.776
286.512
286.264
286.045
285.867
285.735
285.649
285.606
285.593
285.597
285.615
285.654
285.712
285.78
285.858
285.945
286.039
286.14
286.244
286.351
286.459
286.573
286.694
286.824
286.968
287.135
287.338
287.597
287.927
288.337
288.822
289.364
289.911
290.417
290.839
291.151
291.386
291.529
291.527
291.446
291.223
290.869
290.428
289.956
289.502
289.1
288.759
288.476
288.239
288.036
287.856
287.689
287.532
287.379
287.231
287.088
286.951
286.823
286.705
286.598
286.504
286.421
286.349
286.285
286.226
286.169
286.11
286.046
285.974
285.889
285.791
285.679
285.552
285.413
285.266
285.118
284.975
284.847
284.736
284.642
284.568
284.513
284.481
284.476
284.488
284.53
284.604
284.703
284.823
284.961
285.116
285.284
285.463
285.651
285.846
286.045
286.247