/*--------------------------------*- C++ -*----------------------------------*\
| =========                 |                                                 |
| \\      /  F ield         | OpenFOAM: The Open Source CFD Toolbox           |
|  \\    /   O peration     | Version:  v1812                                 |
|   \\  /    A nd           | Web:      www.OpenFOAM.com                      |
|    \\/     M anipulation  |                                                 |
\*---------------------------------------------------------------------------*/
FoamFile
{
    version     2.0;
    format      ascii;
    class       volVectorField;
    location    "0.5";
    object      U;
}
// * * * * * * * * * * * * * * * * * * * * * * * * * * * * * * * * * * * * * //

dimensions      [0 1 -1 0 0 0 0];


internalField   nonuniform List<vector> 
20400
(
(-0.00435174 0.0117264 0)
(0.0225811 -0.0110448 0)
(0.160656 -0.0443146 0)
(0.397168 -0.0594389 0)
(0.719948 -0.0539424 0)
(1.0234 -0.036344 0)
(1.27801 -0.0243161 0)
(1.42889 0.0275432 0)
(1.43864 0.0219318 0)
(1.32971 0.0542931 0)
(1.15211 0.0579648 0)
(0.913288 0.0604689 0)
(0.687229 0.0443243 0)
(0.4768 0.0328185 0)
(0.313776 0.015374 0)
(0.217816 -0.00329533 0)
(0.165743 -0.0251093 0)
(0.160319 -0.0356925 0)
(0.189259 -0.0361317 0)
(0.22752 -0.0292524 0)
(0.254232 -0.0128564 0)
(0.256298 0.00696007 0)
(0.206411 0.0365935 0)
(0.113815 0.0651141 0)
(-0.0609214 0.090377 0)
(-0.333797 0.110982 0)
(-0.736216 0.125604 0)
(-1.26903 0.133966 0)
(-1.93547 0.137658 0)
(-2.71326 0.135861 0)
(-3.60729 0.134563 0)
(-4.53147 0.129727 0)
(-5.51237 0.133384 0)
(-6.38634 0.132725 0)
(-7.19725 0.129622 0)
(-7.81964 0.11676 0)
(-8.23551 0.0916658 0)
(-8.42618 0.0766149 0)
(-8.35483 0.02959 0)
(-8.03831 0.00433439 0)
(-7.52602 -0.0325688 0)
(-6.82242 -0.0648957 0)
(-5.95676 -0.107908 0)
(-4.99333 -0.17631 0)
(-3.96675 -0.246836 0)
(-2.92301 -0.369798 0)
(-2.05941 -0.467005 0)
(-1.26271 -0.44528 0)
(-0.523943 -0.393694 0)
(0.119206 -0.306323 0)
(0.638613 -0.232556 0)
(1.03828 -0.15979 0)
(1.33148 -0.107101 0)
(1.57849 -0.075213 0)
(1.82256 -0.083691 0)
(2.06544 -0.103699 0)
(2.35266 -0.120559 0)
(2.70249 -0.137883 0)
(3.11439 -0.175101 0)
(3.4903 -0.253275 0)
(3.7793 -0.42158 0)
(3.73777 -0.503375 0)
(3.42404 -0.183905 0)
(3.17823 0.161886 0)
(2.70745 0.389991 0)
(1.99231 0.517967 0)
(1.11843 0.586135 0)
(0.15108 0.610893 0)
(-0.950836 0.645053 0)
(-2.18379 0.720113 0)
(-3.4714 0.78837 0)
(-4.74754 0.791568 0)
(-6.01316 0.738442 0)
(-7.18641 0.670586 0)
(-8.30406 0.605017 0)
(-9.28427 0.612007 0)
(-10.0728 0.71074 0)
(-10.6948 0.867754 0)
(-11.122 1.04368 0)
(-11.3841 1.21978 0)
(-11.4121 1.40249 0)
(-11.203 1.44449 0)
(-10.8923 1.44904 0)
(-10.3474 1.37923 0)
(-9.662 1.25336 0)
(-8.82306 1.02818 0)
(-7.85983 0.759174 0)
(-6.86461 0.390132 0)
(-5.71981 0.0685056 0)
(-4.68674 -0.434628 0)
(-3.74781 -0.649474 0)
(-2.69978 -0.713132 0)
(-1.60153 -0.678122 0)
(-0.533745 -0.611524 0)
(0.545176 -0.443507 0)
(1.66173 -0.346291 0)
(2.69939 -0.273696 0)
(3.68581 -0.220934 0)
(4.57439 -0.179585 0)
(5.4157 -0.145989 0)
(6.14024 -0.11806 0)
(6.81976 -0.0910531 0)
(7.39269 -0.0640754 0)
(7.88842 -0.0390701 0)
(8.28603 -0.0149789 0)
(8.59729 0.00874262 0)
(8.80415 0.0290554 0)
(8.91199 0.0446695 0)
(8.9316 0.0464784 0)
(8.8791 0.0548472 0)
(8.75496 0.0693704 0)
(8.52779 0.0888157 0)
(8.2067 0.102205 0)
(7.82115 0.109487 0)
(7.38114 0.113964 0)
(6.90533 0.112698 0)
(6.41142 0.102484 0)
(5.90926 0.0898872 0)
(5.41108 0.0799065 0)
(4.92812 0.0734682 0)
(4.46545 0.0701723 0)
(4.02165 0.069969 0)
(3.59293 0.0728443 0)
(3.17682 0.0787884 0)
(2.77275 0.0870241 0)
(2.38184 0.0966003 0)
(2.00535 0.106651 0)
(1.64491 0.117009 0)
(1.30252 0.127259 0)
(0.978114 0.135724 0)
(0.677556 0.142742 0)
(0.398366 0.14785 0)
(0.148411 0.153992 0)
(-0.0737179 0.156206 0)
(-0.278016 0.150278 0)
(-0.464909 0.142647 0)
(-0.641477 0.136114 0)
(-0.806658 0.131054 0)
(-0.962897 0.127326 0)
(-1.11334 0.124704 0)
(-1.25815 0.122468 0)
(-1.3983 0.119835 0)
(-1.53293 0.115973 0)
(-1.6608 0.110557 0)
(-1.78044 0.103725 0)
(-1.89006 0.0954542 0)
(-1.98823 0.085776 0)
(-2.07309 0.0746851 0)
(-2.1433 0.0633739 0)
(-2.19856 0.0489645 0)
(-2.23474 0.0370296 0)
(-2.25867 0.024143 0)
(-2.26505 0.0136645 0)
(-2.25291 0.00107518 0)
(-2.2295 -0.00909636 0)
(-2.18999 -0.0187349 0)
(-2.13973 -0.0266226 0)
(-2.07706 -0.0332507 0)
(-2.00514 -0.0390296 0)
(-1.92422 -0.0447353 0)
(-1.83576 -0.0495249 0)
(-1.74101 -0.0533331 0)
(-1.64113 -0.0562282 0)
(-1.53747 -0.0582442 0)
(-1.43119 -0.0594317 0)
(-1.3235 -0.0598375 0)
(-1.21549 -0.0595056 0)
(-1.10825 -0.0584837 0)
(-1.00277 -0.0568285 0)
(-0.899963 -0.0546004 0)
(-0.800676 -0.0518709 0)
(-0.705635 -0.0487205 0)
(-0.615464 -0.0452169 0)
(-0.530668 -0.0414348 0)
(-0.451599 -0.0374613 0)
(-0.378477 -0.0333587 0)
(-0.31145 -0.0291468 0)
(-0.250593 -0.0249242 0)
(-0.195919 -0.0207215 0)
(-0.147376 -0.0165822 0)
(-0.104825 -0.0125704 0)
(-0.0680214 -0.00874484 0)
(-0.0366421 -0.00514008 0)
(-0.0103411 -0.00173713 0)
(0.0112821 0.00147999 0)
(0.0284715 0.00458428 0)
(0.0415324 0.00765437 0)
(0.0505435 0.0105067 0)
(0.0559041 0.0131171 0)
(0.0581818 0.0153407 0)
(0.0571077 0.0172543 0)
(0.0534504 0.0190864 0)
(0.0477847 0.0206551 0)
(0.0401762 0.0219947 0)
(0.0309958 0.0231025 0)
(0.0205013 0.0240347 0)
(0.00899876 0.0248553 0)
(-0.00330404 0.0255959 0)
(-0.0161455 0.0261915 0)
(-0.0293689 0.0266463 0)
(-0.0427945 0.0269785 0)
(-0.0563 0.0272347 0)
(-0.0697585 0.0274068 0)
(-0.0830691 0.0275283 0)
(-0.0961341 0.0275882 0)
(-0.10893 0.0276494 0)
(-0.121439 0.0276654 0)
(-0.133599 0.0276643 0)
(-0.145399 0.0276554 0)
(-0.156832 0.0276441 0)
(-0.167893 0.0276349 0)
(-0.178585 0.0276319 0)
(-0.188912 0.0276377 0)
(-0.198878 0.0276547 0)
(-0.208493 0.0276832 0)
(-0.217766 0.0277235 0)
(-0.226705 0.0277752 0)
(-0.235319 0.0278382 0)
(-0.243616 0.0279108 0)
(-0.251603 0.0279928 0)
(-0.259285 0.0280822 0)
(-0.266666 0.0281784 0)
(-0.27375 0.0282803 0)
(-0.280536 0.028386 0)
(-0.287025 0.0284955 0)
(-0.293215 0.0286069 0)
(-0.299104 0.0287196 0)
(-0.304688 0.0288336 0)
(-0.309964 0.0289464 0)
(-0.314927 0.0290591 0)
(-0.31957 0.0291705 0)
(-0.323889 0.0292792 0)
(-0.327881 0.0293872 0)
(-0.331533 0.0294925 0)
(-0.334851 0.029594 0)
(-0.337821 0.0296967 0)
(-0.340435 0.0297938 0)
(-0.342707 0.0298902 0)
(-0.344603 0.0299879 0)
(-0.346144 0.0300773 0)
(-0.347335 0.0301725 0)
(-0.348127 0.0302681 0)
(-0.348535 0.0303576 0)
(-0.34858 0.0304437 0)
(-0.348254 0.0305297 0)
(-0.347539 0.0306177 0)
(-0.346432 0.0307024 0)
(-0.34494 0.030786 0)
(-0.343059 0.030868 0)
(-0.340784 0.0309483 0)
(-0.338117 0.0310271 0)
(-0.335054 0.0311036 0)
(-0.331596 0.0311786 0)
(-0.327738 0.0312512 0)
(-0.323483 0.0313219 0)
(-0.318826 0.0313903 0)
(-0.313769 0.0314563 0)
(-0.308309 0.03152 0)
(-0.302446 0.0315809 0)
(-0.296179 0.0316394 0)
(-0.289507 0.0316953 0)
(-0.282432 0.031749 0)
(-0.27495 0.0318001 0)
(-0.267066 0.0318485 0)
(-0.258774 0.0318942 0)
(-0.250078 0.0319369 0)
(-0.240975 0.0319767 0)
(-0.231469 0.0320133 0)
(-0.221555 0.0320465 0)
(-0.211239 0.0320761 0)
(-0.200516 0.0321021 0)
(-0.189391 0.0321238 0)
(-0.177861 0.0321415 0)
(-0.165931 0.032154 0)
(-0.153596 0.0321623 0)
(-0.140863 0.0321637 0)
(-0.127729 0.0321603 0)
(-0.114198 0.0321482 0)
(-0.100268 0.0321299 0)
(-0.0859441 0.0321006 0)
(-0.0712256 0.0320638 0)
(-0.0561181 0.0320141 0)
(-0.0406293 0.0319577 0)
(-0.0247569 0.0318975 0)
(-0.0085009 0.0318332 0)
(0.00813534 0.0317651 0)
(0.0251502 0.0316931 0)
(0.0425446 0.0316171 0)
(0.060316 0.0315381 0)
(0.078462 0.0314557 0)
(0.0969797 0.0313703 0)
(0.115866 0.0312819 0)
(0.135117 0.0311904 0)
(0.15473 0.0310961 0)
(0.174701 0.0309987 0)
(0.195027 0.0308985 0)
(0.215705 0.0307954 0)
(0.23673 0.0306895 0)
(0.258098 0.0305807 0)
(0.279807 0.0304691 0)
(0.301852 0.030355 0)
(0.32423 0.0302378 0)
(0.346935 0.0301183 0)
(0.369965 0.0299959 0)
(0.393314 0.0298709 0)
(0.416979 0.0297433 0)
(0.440954 0.029613 0)
(0.465236 0.0294806 0)
(0.489818 0.0293451 0)
(0.514697 0.0292074 0)
(0.539867 0.0290669 0)
(0.565324 0.028924 0)
(0.591063 0.0287785 0)
(0.617078 0.0286301 0)
(0.643365 0.0284796 0)
(0.669918 0.0283259 0)
(0.696732 0.0281701 0)
(0.723801 0.0280113 0)
(0.751121 0.0278501 0)
(0.778685 0.0276865 0)
(0.806489 0.0275199 0)
(0.834529 0.0273521 0)
(0.862798 0.0271825 0)
(0.89129 0.0270126 0)
(0.92 0.0268405 0)
(0.948923 0.0266671 0)
(0.978051 0.0264924 0)
(1.00738 0.0263167 0)
(1.03691 0.0261399 0)
(1.06662 0.0259622 0)
(1.09652 0.0257835 0)
(1.12659 0.0256039 0)
(1.15684 0.0254233 0)
(1.18725 0.0252418 0)
(1.21782 0.0250595 0)
(1.24855 0.0248763 0)
(1.27942 0.0246924 0)
(1.31044 0.0245077 0)
(1.34159 0.0243224 0)
(1.37287 0.0241364 0)
(1.40428 0.0239499 0)
(1.43581 0.0237629 0)
(1.46745 0.0235753 0)
(1.49919 0.0233874 0)
(1.53104 0.0231991 0)
(1.56298 0.0230104 0)
(1.59501 0.0228215 0)
(1.62712 0.0226324 0)
(1.65931 0.022443 0)
(1.69157 0.0222535 0)
(1.7239 0.0220639 0)
(1.75629 0.0218742 0)
(1.78872 0.0216844 0)
(1.82121 0.0214947 0)
(1.85374 0.0213049 0)
(1.8863 0.0211153 0)
(1.91889 0.0209257 0)
(1.95151 0.0207363 0)
(1.98414 0.020547 0)
(2.01679 0.0203579 0)
(2.04944 0.0201689 0)
(2.08209 0.0199801 0)
(2.11474 0.0197916 0)
(2.14738 0.0196033 0)
(2.18 0.0194152 0)
(2.2126 0.0192275 0)
(2.24518 0.0190402 0)
(2.27772 0.0188534 0)
(2.31022 0.0186668 0)
(2.34268 0.0184805 0)
(2.37509 0.0182947 0)
(2.40744 0.0181092 0)
(2.43974 0.017924 0)
(2.47197 0.0177395 0)
(2.50413 0.0175556 0)
(2.53621 0.0173723 0)
(2.56821 0.0171895 0)
(2.60013 0.0170073 0)
(2.63195 0.0168253 0)
(2.66368 0.0166439 0)
(2.69531 0.0164632 0)
(2.72683 0.0162833 0)
(2.75824 0.0161038 0)
(2.78954 0.0159251 0)
(2.82071 0.015747 0)
(2.85176 0.0155694 0)
(2.88268 0.0153926 0)
(2.91346 0.0152166 0)
(2.94411 0.0150411 0)
(2.97461 0.0148664 0)
(3.00496 0.0146926 0)
(3.03516 0.0145195 0)
(3.0652 0.0143473 0)
(3.09509 0.0141756 0)
(3.1248 0.0140044 0)
(3.15435 0.0138341 0)
(3.18372 0.0136651 0)
(3.21291 0.013497 0)
(3.24192 0.0133295 0)
(3.27075 0.0131626 0)
(3.29938 0.0129964 0)
(3.32782 0.0128308 0)
(3.35606 0.0126666 0)
(3.38411 0.0125035 0)
(3.41194 0.0123408 0)
(3.43957 0.012179 0)
(3.46698 0.0120181 0)
(3.49418 0.0118582 0)
(3.52116 0.0116986 0)
(3.54792 0.0115404 0)
(3.57445 0.0113832 0)
(3.60075 0.0112269 0)
(3.62681 0.0110713 0)
(3.65264 0.0109168 0)
(3.67823 0.010763 0)
(3.70358 0.01061 0)
(3.72869 0.0104577 0)
(3.75354 0.0103063 0)
(3.77815 0.0101564 0)
(3.8025 0.0100077 0)
(3.82659 0.00985957 0)
(3.85042 0.00971242 0)
(3.87399 0.00956644 0)
(3.89729 0.00942116 0)
(3.92033 0.00927663 0)
(3.94309 0.0091334 0)
(3.96559 0.008991 0)
(3.9878 0.00885037 0)
(4.00974 0.00871023 0)
(4.03139 0.00857118 0)
(4.05277 0.00843346 0)
(4.07385 0.00829625 0)
(4.09465 0.00815994 0)
(4.11516 0.00802493 0)
(4.13537 0.00789125 0)
(4.15529 0.00775833 0)
(4.17491 0.00762603 0)
(4.19423 0.00749517 0)
(4.21325 0.00736563 0)
(4.23197 0.00723611 0)
(4.25038 0.00710836 0)
(4.26848 0.00698194 0)
(4.28628 0.00685569 0)
(4.30376 0.00673097 0)
(4.32092 0.0066073 0)
(4.33777 0.00648382 0)
(4.3543 0.00636205 0)
(4.37051 0.0062413 0)
(4.3864 0.00612044 0)
(4.40197 0.00600129 0)
(4.41721 0.0058837 0)
(4.43212 0.00576615 0)
(4.4467 0.00565035 0)
(4.46095 0.00553502 0)
(4.47486 0.00541928 0)
(4.48844 0.00530637 0)
(4.50168 0.00519379 0)
(4.51459 0.00508107 0)
(4.52715 0.00497054 0)
(4.53937 0.00486057 0)
(4.55124 0.00474949 0)
(4.56277 0.00464165 0)
(4.57395 0.00453496 0)
(4.58478 0.00442592 0)
(4.59526 0.00431873 0)
(4.60538 0.00421224 0)
(4.61515 0.00410589 0)
(4.62456 0.00400236 0)
(4.63361 0.00389867 0)
(4.6423 0.00379456 0)
(4.65062 0.00369224 0)
(4.65858 0.00358942 0)
(4.66617 0.0034871 0)
(4.6734 0.00338612 0)
(4.68025 0.00328663 0)
(4.68673 0.00318607 0)
(4.69284 0.00308626 0)
(4.69857 0.00298731 0)
(4.70393 0.00288949 0)
(4.7089 0.00278971 0)
(4.7135 0.00269403 0)
(4.71772 0.00259575 0)
(4.72154 0.00250032 0)
(4.725 0.00240091 0)
(4.72806 0.00230727 0)
(4.73076 0.00220551 0)
(4.73304 0.00211499 0)
(4.73499 0.00201318 0)
(4.73647 0.00192629 0)
(4.73763 0.00182958 0)
(4.73836 0.0017661 0)
(4.73866 0.00165279 0)
(4.73859 0.00155716 0)
(4.73823 0.00143327 0)
(4.73712 0.00130093 0)
(4.73632 0.00140905 0)
(4.73417 0.00103611 0)
(4.73473 0.00107718 0)
(4.72386 0.000365826 0)
(4.75172 8.08583e-05 0)
(0.0147726 -0.00364653 0)
(0.155112 -0.169502 0)
(0.511659 -0.37913 0)
(1.02335 -0.528055 0)
(1.6558 -0.540868 0)
(2.2356 -0.461875 0)
(2.76888 -0.320876 0)
(3.10287 -0.0846294 0)
(3.3238 0.0462549 0)
(3.26851 0.234446 0)
(3.0267 0.355108 0)
(2.65561 0.417018 0)
(2.1822 0.424112 0)
(1.68994 0.399907 0)
(1.21618 0.308232 0)
(0.828005 0.215408 0)
(0.509501 0.122048 0)
(0.287581 0.0632898 0)
(0.109686 0.0322904 0)
(-0.0673894 0.00719995 0)
(-0.285874 0.0365958 0)
(-0.571867 0.0963647 0)
(-0.962717 0.209707 0)
(-1.49241 0.347205 0)
(-2.18592 0.521693 0)
(-3.04357 0.711349 0)
(-4.06414 0.921383 0)
(-5.22537 1.10948 0)
(-6.50909 1.27204 0)
(-7.83136 1.39097 0)
(-9.15142 1.46758 0)
(-10.3365 1.44883 0)
(-11.4176 1.38528 0)
(-12.22 1.21452 0)
(-12.8335 0.990867 0)
(-13.1687 0.719589 0)
(-13.2032 0.380818 0)
(-12.8889 0.0724888 0)
(-12.3646 -0.251246 0)
(-11.5502 -0.554 0)
(-10.5307 -0.863992 0)
(-9.29209 -1.13023 0)
(-7.88974 -1.36825 0)
(-6.35433 -1.55816 0)
(-4.74843 -1.68273 0)
(-3.1228 -1.75016 0)
(-1.44165 -1.723 0)
(0.131846 -1.49334 0)
(1.51807 -1.20264 0)
(2.73612 -0.889709 0)
(3.73363 -0.624939 0)
(4.48907 -0.4389 0)
(5.00867 -0.367587 0)
(5.30012 -0.346647 0)
(5.45715 -0.375623 0)
(5.56963 -0.349305 0)
(5.64278 -0.439619 0)
(5.65638 -0.51399 0)
(5.58033 -0.510923 0)
(5.30093 -0.392777 0)
(4.90877 -0.0377792 0)
(4.47805 0.368966 0)
(3.70399 0.864604 0)
(2.34949 1.28453 0)
(0.64342 1.61564 0)
(-1.25359 1.81332 0)
(-3.28715 1.94232 0)
(-5.4368 1.9147 0)
(-7.54152 1.81718 0)
(-9.48476 1.69174 0)
(-11.2332 1.54847 0)
(-12.7513 1.43083 0)
(-14.0252 1.32087 0)
(-15.0208 1.21887 0)
(-15.7481 1.0992 0)
(-16.187 0.93817 0)
(-16.4295 0.726624 0)
(-16.4111 0.49678 0)
(-16.3073 0.274156 0)
(-15.9971 0.00623115 0)
(-15.5103 -0.240195 0)
(-14.8492 -0.501341 0)
(-14.0414 -0.721919 0)
(-13.0737 -0.954074 0)
(-11.998 -1.16712 0)
(-10.7659 -1.37554 0)
(-9.40781 -1.56352 0)
(-7.88675 -1.7598 0)
(-6.34445 -1.901 0)
(-4.63838 -2.09715 0)
(-2.72881 -2.22249 0)
(-0.889422 -2.33589 0)
(0.891642 -2.27113 0)
(2.6646 -2.1895 0)
(4.35779 -2.00564 0)
(5.93549 -1.78022 0)
(7.46449 -1.57765 0)
(8.9551 -1.41805 0)
(10.378 -1.27737 0)
(11.7548 -1.14113 0)
(13.0408 -1.01615 0)
(14.2728 -0.896845 0)
(15.419 -0.768184 0)
(16.4894 -0.642507 0)
(17.4711 -0.518966 0)
(18.3643 -0.386778 0)
(19.1582 -0.242489 0)
(19.8373 -0.0843197 0)
(20.4027 0.00127705 0)
(20.8145 0.11855 0)
(21.0842 0.248883 0)
(21.1496 0.421774 0)
(21.031 0.550784 0)
(20.752 0.657802 0)
(20.2926 0.752801 0)
(19.64 0.821147 0)
(18.8085 0.876788 0)
(17.8193 0.918933 0)
(16.6991 0.933518 0)
(15.4799 0.925086 0)
(14.1979 0.907492 0)
(12.8914 0.890643 0)
(11.5968 0.874978 0)
(10.3444 0.856465 0)
(9.15599 0.83212 0)
(8.04649 0.802135 0)
(7.0247 0.76778 0)
(6.09501 0.730271 0)
(5.25684 0.691972 0)
(4.50786 0.653078 0)
(3.84348 0.616217 0)
(3.25659 0.57892 0)
(2.74201 0.540823 0)
(2.28244 0.497989 0)
(1.88264 0.45309 0)
(1.5292 0.416121 0)
(1.20858 0.386809 0)
(0.915218 0.364332 0)
(0.644856 0.346971 0)
(0.39355 0.332607 0)
(0.161306 0.319221 0)
(-0.0521671 0.305385 0)
(-0.245932 0.290056 0)
(-0.419108 0.271931 0)
(-0.569462 0.24973 0)
(-0.694659 0.223633 0)
(-0.793404 0.193548 0)
(-0.863019 0.160496 0)
(-0.905533 0.123705 0)
(-0.915374 0.0868202 0)
(-0.891509 0.0504941 0)
(-0.841392 0.0143925 0)
(-0.76413 -0.0162963 0)
(-0.663285 -0.0481542 0)
(-0.539636 -0.0765019 0)
(-0.394454 -0.104527 0)
(-0.230359 -0.12969 0)
(-0.0488396 -0.152421 0)
(0.147287 -0.170957 0)
(0.355535 -0.184273 0)
(0.573564 -0.195053 0)
(0.799484 -0.203528 0)
(1.03118 -0.209685 0)
(1.2665 -0.213347 0)
(1.50345 -0.214722 0)
(1.74005 -0.213986 0)
(1.97445 -0.211169 0)
(2.20488 -0.206473 0)
(2.42969 -0.200026 0)
(2.64737 -0.191954 0)
(2.85656 -0.182458 0)
(3.05609 -0.171715 0)
(3.24493 -0.159935 0)
(3.42231 -0.147463 0)
(3.58771 -0.134622 0)
(3.74082 -0.121604 0)
(3.88149 -0.108551 0)
(4.00963 -0.0954707 0)
(4.12525 -0.0824839 0)
(4.22855 -0.0697514 0)
(4.31994 -0.0574897 0)
(4.4 -0.0458928 0)
(4.46946 -0.0350562 0)
(4.52907 -0.0249824 0)
(4.57965 -0.0156452 0)
(4.62201 -0.00703179 0)
(4.65715 0.000945756 0)
(4.68602 0.00824643 0)
(4.70934 0.0150725 0)
(4.72779 0.0212118 0)
(4.74193 0.0265179 0)
(4.75234 0.0313355 0)
(4.75973 0.0355442 0)
(4.76451 0.0392975 0)
(4.76725 0.0425147 0)
(4.76836 0.0451989 0)
(4.76835 0.0472209 0)
(4.76754 0.0486604 0)
(4.7663 0.0496669 0)
(4.76488 0.0504114 0)
(4.76349 0.050893 0)
(4.76226 0.0511655 0)
(4.76132 0.0512657 0)
(4.76078 0.0512578 0)
(4.76079 0.0511654 0)
(4.76133 0.0510145 0)
(4.76236 0.0508136 0)
(4.76404 0.0506141 0)
(4.76631 0.0504339 0)
(4.7692 0.0502639 0)
(4.77268 0.0501117 0)
(4.77675 0.0499813 0)
(4.7814 0.0498666 0)
(4.78661 0.049769 0)
(4.79236 0.0496935 0)
(4.79864 0.0496399 0)
(4.80544 0.0496062 0)
(4.81274 0.0495916 0)
(4.82053 0.049595 0)
(4.82881 0.0496149 0)
(4.83756 0.0496486 0)
(4.84678 0.0496944 0)
(4.85647 0.049749 0)
(4.86662 0.0498094 0)
(4.87724 0.0498745 0)
(4.88833 0.0499413 0)
(4.89989 0.0500084 0)
(4.91193 0.0500757 0)
(4.92444 0.0501402 0)
(4.93744 0.0502033 0)
(4.95093 0.0502653 0)
(4.9649 0.0503241 0)
(4.97938 0.0503827 0)
(4.99435 0.0504405 0)
(5.00983 0.0504948 0)
(5.02582 0.0505516 0)
(5.04232 0.0506038 0)
(5.05933 0.0506553 0)
(5.07686 0.0507086 0)
(5.09491 0.0507523 0)
(5.11347 0.0508021 0)
(5.13255 0.0508526 0)
(5.15217 0.0508952 0)
(5.17229 0.0509334 0)
(5.19293 0.0509721 0)
(5.21409 0.0510138 0)
(5.23577 0.0510535 0)
(5.25797 0.0510935 0)
(5.28068 0.0511334 0)
(5.30391 0.0511747 0)
(5.32765 0.051216 0)
(5.3519 0.0512582 0)
(5.37667 0.0513008 0)
(5.40194 0.0513438 0)
(5.42773 0.0513877 0)
(5.45401 0.0514307 0)
(5.4808 0.0514748 0)
(5.5081 0.0515175 0)
(5.53589 0.0515602 0)
(5.56419 0.051603 0)
(5.59298 0.0516455 0)
(5.62226 0.0516913 0)
(5.65204 0.0517354 0)
(5.6823 0.0517778 0)
(5.71305 0.0518183 0)
(5.74429 0.0518568 0)
(5.77601 0.0518936 0)
(5.8082 0.0519281 0)
(5.84088 0.0519604 0)
(5.87402 0.0519903 0)
(5.90764 0.0520178 0)
(5.94172 0.0520423 0)
(5.97627 0.0520642 0)
(6.01128 0.0520826 0)
(6.04674 0.0520976 0)
(6.08266 0.0521083 0)
(6.11903 0.0521144 0)
(6.15584 0.0521142 0)
(6.19309 0.052108 0)
(6.23077 0.0520925 0)
(6.26889 0.0520696 0)
(6.30743 0.0520348 0)
(6.3464 0.0519937 0)
(6.38579 0.051948 0)
(6.42559 0.051898 0)
(6.4658 0.051844 0)
(6.50641 0.0517856 0)
(6.54741 0.0517233 0)
(6.5888 0.0516569 0)
(6.63057 0.0515873 0)
(6.67271 0.051514 0)
(6.71522 0.0514372 0)
(6.7581 0.0513571 0)
(6.80132 0.0512734 0)
(6.8449 0.0511864 0)
(6.88883 0.0510958 0)
(6.93309 0.0510018 0)
(6.97768 0.0509042 0)
(7.02259 0.0508031 0)
(7.06783 0.0506986 0)
(7.11337 0.0505903 0)
(7.15922 0.0504788 0)
(7.20537 0.0503634 0)
(7.25181 0.0502446 0)
(7.29853 0.0501217 0)
(7.34553 0.049995 0)
(7.3928 0.0498649 0)
(7.44033 0.0497309 0)
(7.48812 0.0495942 0)
(7.53615 0.0494534 0)
(7.58442 0.0493097 0)
(7.63293 0.0491623 0)
(7.68166 0.0490118 0)
(7.73062 0.0488585 0)
(7.77978 0.0487018 0)
(7.82914 0.048543 0)
(7.8787 0.048381 0)
(7.92845 0.0482172 0)
(7.97838 0.048051 0)
(8.02848 0.0478832 0)
(8.07874 0.0477146 0)
(8.12917 0.0475429 0)
(8.17974 0.0473683 0)
(8.23046 0.047189 0)
(8.28131 0.0470072 0)
(8.33228 0.0468217 0)
(8.38338 0.046633 0)
(8.43459 0.0464411 0)
(8.4859 0.0462461 0)
(8.5373 0.0460478 0)
(8.5888 0.0458464 0)
(8.64037 0.0456416 0)
(8.69202 0.0454337 0)
(8.74374 0.0452226 0)
(8.79551 0.0450085 0)
(8.84733 0.0447914 0)
(8.89919 0.0445716 0)
(8.95108 0.0443489 0)
(9.00301 0.0441236 0)
(9.05495 0.0438956 0)
(9.10691 0.043665 0)
(9.15887 0.0434317 0)
(9.21082 0.0431958 0)
(9.26277 0.0429574 0)
(9.3147 0.0427164 0)
(9.3666 0.0424729 0)
(9.41847 0.042227 0)
(9.4703 0.0419787 0)
(9.52208 0.041728 0)
(9.57381 0.041475 0)
(9.62548 0.0412197 0)
(9.67708 0.0409622 0)
(9.7286 0.0407026 0)
(9.78004 0.0404408 0)
(9.83139 0.040177 0)
(9.88264 0.0399111 0)
(9.93379 0.0396435 0)
(9.98483 0.0393741 0)
(10.0358 0.0391029 0)
(10.0865 0.03883 0)
(10.1372 0.0385553 0)
(10.1877 0.038279 0)
(10.2381 0.0380013 0)
(10.2884 0.0377221 0)
(10.3384 0.0374415 0)
(10.3884 0.0371594 0)
(10.4381 0.0368759 0)
(10.4877 0.0365917 0)
(10.5371 0.0363065 0)
(10.5863 0.0360199 0)
(10.6353 0.0357319 0)
(10.6841 0.0354428 0)
(10.7327 0.0351526 0)
(10.7811 0.0348615 0)
(10.8292 0.0345704 0)
(10.8772 0.0342794 0)
(10.9249 0.0339878 0)
(10.9724 0.0336953 0)
(11.0197 0.0334014 0)
(11.0667 0.0331062 0)
(11.1134 0.0328108 0)
(11.1599 0.0325159 0)
(11.2061 0.032221 0)
(11.2521 0.0319253 0)
(11.2978 0.0316293 0)
(11.3433 0.0313324 0)
(11.3884 0.0310354 0)
(11.4333 0.0307387 0)
(11.4778 0.0304425 0)
(11.5221 0.0301463 0)
(11.5661 0.0298505 0)
(11.6098 0.0295548 0)
(11.6532 0.0292597 0)
(11.6962 0.0289649 0)
(11.739 0.0286694 0)
(11.7814 0.028373 0)
(11.8235 0.0280783 0)
(11.8653 0.0277861 0)
(11.9067 0.027495 0)
(11.9478 0.0272031 0)
(11.9886 0.0269103 0)
(12.029 0.0266165 0)
(12.0691 0.0263242 0)
(12.1088 0.026035 0)
(12.1482 0.0257466 0)
(12.1872 0.0254586 0)
(12.2259 0.0251714 0)
(12.2642 0.024885 0)
(12.3021 0.0245994 0)
(12.3397 0.0243147 0)
(12.3769 0.0240312 0)
(12.4137 0.023749 0)
(12.4501 0.0234686 0)
(12.4862 0.0231892 0)
(12.5219 0.0229112 0)
(12.5572 0.0226329 0)
(12.5921 0.0223546 0)
(12.6266 0.0220778 0)
(12.6608 0.0218042 0)
(12.6945 0.021533 0)
(12.7278 0.0212644 0)
(12.7608 0.0209958 0)
(12.7933 0.0207273 0)
(12.8254 0.0204602 0)
(12.8572 0.020194 0)
(12.8885 0.0199295 0)
(12.9194 0.0196673 0)
(12.9499 0.0194074 0)
(12.98 0.0191484 0)
(13.0096 0.0188913 0)
(13.0389 0.0186372 0)
(13.0677 0.0183836 0)
(13.0962 0.0181308 0)
(13.1241 0.017879 0)
(13.1517 0.0176303 0)
(13.1789 0.0173827 0)
(13.2056 0.0171372 0)
(13.2319 0.0168924 0)
(13.2577 0.01665 0)
(13.2832 0.016409 0)
(13.3082 0.0161696 0)
(13.3327 0.0159328 0)
(13.3568 0.0156989 0)
(13.3805 0.0154663 0)
(13.4038 0.0152353 0)
(13.4266 0.0150054 0)
(13.449 0.0147768 0)
(13.4709 0.0145508 0)
(13.4924 0.0143261 0)
(13.5134 0.0141013 0)
(13.534 0.0138803 0)
(13.5542 0.013663 0)
(13.5739 0.013447 0)
(13.5932 0.0132332 0)
(13.612 0.0130196 0)
(13.6303 0.0128085 0)
(13.6482 0.0125989 0)
(13.6657 0.0123913 0)
(13.6826 0.0121843 0)
(13.6992 0.0119794 0)
(13.7152 0.0117765 0)
(13.7309 0.0115747 0)
(13.746 0.0113785 0)
(13.7607 0.0111825 0)
(13.7749 0.0109871 0)
(13.7887 0.0107932 0)
(13.802 0.0105988 0)
(13.8148 0.01041 0)
(13.8272 0.0102253 0)
(13.839 0.0100405 0)
(13.8505 0.00985827 0)
(13.8614 0.00967322 0)
(13.8719 0.00948958 0)
(13.8819 0.0093053 0)
(13.8914 0.0091252 0)
(13.9004 0.0089454 0)
(13.909 0.00876801 0)
(13.917 0.00858766 0)
(13.9246 0.00841629 0)
(13.9317 0.00823464 0)
(13.9383 0.00806605 0)
(13.9445 0.00787826 0)
(13.9501 0.00771953 0)
(13.9553 0.00751223 0)
(13.96 0.00737797 0)
(13.9642 0.00712839 0)
(13.9679 0.00704087 0)
(13.9711 0.00673591 0)
(13.9739 0.00669049 0)
(13.976 0.00635318 0)
(13.978 0.0063116 0)
(13.979 0.0059968 0)
(13.98 0.00595366 0)
(13.9801 0.00571029 0)
(13.9798 0.00530545 0)
(13.9791 0.00532994 0)
(13.9779 0.00428642 0)
(13.977 0.00407395 0)
(13.9694 0.000382898 0)
(13.9919 -0.000279912 0)
(0.0312353 -0.0843557 0)
(0.277709 -0.479642 0)
(0.772186 -0.915353 0)
(1.44901 -1.2303 0)
(2.2359 -1.29608 0)
(2.95201 -1.15837 0)
(3.56524 -0.845573 0)
(4.0138 -0.458413 0)
(4.30369 -0.0190232 0)
(4.41189 0.334255 0)
(4.25186 0.639289 0)
(3.91642 0.865274 0)
(3.41223 0.97537 0)
(2.82729 0.967111 0)
(2.2051 0.859713 0)
(1.60347 0.712803 0)
(1.05223 0.555196 0)
(0.564145 0.446661 0)
(0.123716 0.402487 0)
(-0.317202 0.400167 0)
(-0.778863 0.476968 0)
(-1.34659 0.629165 0)
(-2.04896 0.854708 0)
(-2.91806 1.13292 0)
(-3.96327 1.45188 0)
(-5.16813 1.79243 0)
(-6.50274 2.11155 0)
(-7.91498 2.40102 0)
(-9.3579 2.62959 0)
(-10.7471 2.72628 0)
(-12.0504 2.69381 0)
(-13.1697 2.52048 0)
(-14.1322 2.23617 0)
(-14.8226 1.82422 0)
(-15.3097 1.32201 0)
(-15.5027 0.723813 0)
(-15.4151 0.0903121 0)
(-15.0601 -0.592636 0)
(-14.4348 -1.25586 0)
(-13.5456 -1.9006 0)
(-12.401 -2.49038 0)
(-11.0233 -2.99773 0)
(-9.43366 -3.40878 0)
(-7.67506 -3.67791 0)
(-5.77726 -3.81117 0)
(-3.80892 -3.74279 0)
(-1.80609 -3.53919 0)
(0.179654 -3.27241 0)
(2.00278 -2.86463 0)
(3.57772 -2.34601 0)
(4.89117 -1.77957 0)
(5.93875 -1.21556 0)
(6.81257 -0.749504 0)
(7.37804 -0.441166 0)
(7.80254 -0.320711 0)
(7.80491 -0.296471 0)
(7.53294 -0.311511 0)
(7.07853 -0.3229 0)
(6.50187 -0.102573 0)
(5.84341 0.396922 0)
(4.78532 1.09608 0)
(3.19705 1.74993 0)
(1.31393 2.32305 0)
(-0.776021 2.84703 0)
(-2.99769 3.24035 0)
(-5.23827 3.55529 0)
(-7.34619 3.71438 0)
(-9.22998 3.78546 0)
(-10.8292 3.74373 0)
(-12.1553 3.57238 0)
(-13.2523 3.30687 0)
(-14.1365 2.99424 0)
(-14.8372 2.62056 0)
(-15.3658 2.2203 0)
(-15.7625 1.79517 0)
(-16.0872 1.40838 0)
(-16.2063 0.902781 0)
(-16.1347 0.225732 0)
(-15.6538 -0.414169 0)
(-15.067 -1.03185 0)
(-14.3141 -1.57826 0)
(-13.4171 -2.06757 0)
(-12.3722 -2.52206 0)
(-11.1743 -2.93888 0)
(-9.83179 -3.29964 0)
(-8.36819 -3.57826 0)
(-6.80964 -3.79206 0)
(-5.16315 -3.90542 0)
(-3.4311 -3.95487 0)
(-1.64281 -3.8052 0)
(0.135827 -3.66 0)
(1.89514 -3.5405 0)
(3.64072 -3.49048 0)
(5.36582 -3.41438 0)
(7.05821 -3.37956 0)
(8.72666 -3.32049 0)
(10.3587 -3.22624 0)
(11.9469 -3.08423 0)
(13.4674 -2.91233 0)
(14.9442 -2.72587 0)
(16.3446 -2.52588 0)
(17.7017 -2.32868 0)
(18.9929 -2.1141 0)
(20.2281 -1.89507 0)
(21.3993 -1.673 0)
(22.5079 -1.44331 0)
(23.5472 -1.19168 0)
(24.5164 -0.932117 0)
(25.4063 -0.681183 0)
(26.198 -0.408915 0)
(26.8707 -0.051567 0)
(27.4604 0.262378 0)
(27.916 0.562555 0)
(28.2238 0.868002 0)
(28.337 1.19628 0)
(28.2202 1.50882 0)
(27.89 1.78992 0)
(27.3346 2.03992 0)
(26.5386 2.25348 0)
(25.5018 2.42526 0)
(24.2398 2.54609 0)
(22.7839 2.60786 0)
(21.1776 2.60775 0)
(19.4729 2.55345 0)
(17.7272 2.45437 0)
(15.9986 2.3192 0)
(14.337 2.15588 0)
(12.7809 1.9756 0)
(11.3599 1.78614 0)
(10.0908 1.59245 0)
(8.98027 1.39803 0)
(8.01998 1.21279 0)
(7.20013 1.04818 0)
(6.49308 0.91444 0)
(5.88537 0.814249 0)
(5.35362 0.737423 0)
(4.88716 0.675788 0)
(4.47227 0.626076 0)
(4.10203 0.584104 0)
(3.76914 0.54614 0)
(3.47065 0.508519 0)
(3.20486 0.468999 0)
(2.97213 0.426739 0)
(2.7736 0.380889 0)
(2.6101 0.330734 0)
(2.482 0.276665 0)
(2.38948 0.219166 0)
(2.33179 0.15979 0)
(2.30896 0.0987779 0)
(2.32265 0.040501 0)
(2.36883 -0.0185626 0)
(2.44403 -0.0742875 0)
(2.54985 -0.126583 0)
(2.68425 -0.175445 0)
(2.84523 -0.220178 0)
(3.03084 -0.260272 0)
(3.23818 -0.295034 0)
(3.46521 -0.325026 0)
(3.70976 -0.351328 0)
(3.97025 -0.374801 0)
(4.2444 -0.393972 0)
(4.52946 -0.408492 0)
(4.82303 -0.418436 0)
(5.12276 -0.424229 0)
(5.4262 -0.426076 0)
(5.73098 -0.424015 0)
(6.03498 -0.418373 0)
(6.33608 -0.409271 0)
(6.63239 -0.39699 0)
(6.92193 -0.381864 0)
(7.20284 -0.364237 0)
(7.47348 -0.344473 0)
(7.7324 -0.322931 0)
(7.97841 -0.300068 0)
(8.21048 -0.27635 0)
(8.42778 -0.252117 0)
(8.62972 -0.227644 0)
(8.81605 -0.203055 0)
(8.98682 -0.1786 0)
(9.14228 -0.154644 0)
(9.28281 -0.131565 0)
(9.40895 -0.109682 0)
(9.52137 -0.0891959 0)
(9.62081 -0.0701986 0)
(9.7081 -0.0527083 0)
(9.78413 -0.0367927 0)
(9.84984 -0.022469 0)
(9.90617 -0.00965879 0)
(9.95416 0.00176636 0)
(9.99496 0.0118336 0)
(10.0295 0.0206269 0)
(10.0587 0.0282507 0)
(10.0833 0.0347477 0)
(10.1041 0.0401722 0)
(10.122 0.0445792 0)
(10.1374 0.0480928 0)
(10.1509 0.0508765 0)
(10.1629 0.0530463 0)
(10.1739 0.0546512 0)
(10.1842 0.0557166 0)
(10.1942 0.0563882 0)
(10.2041 0.0567175 0)
(10.2141 0.056823 0)
(10.2245 0.0567154 0)
(10.2352 0.0564782 0)
(10.2464 0.056086 0)
(10.258 0.0556672 0)
(10.2702 0.0551965 0)
(10.283 0.0546854 0)
(10.2963 0.0541799 0)
(10.3102 0.0536934 0)
(10.3246 0.053236 0)
(10.3397 0.0528251 0)
(10.3552 0.0524682 0)
(10.3713 0.0521601 0)
(10.3879 0.0518995 0)
(10.405 0.051685 0)
(10.4226 0.0515145 0)
(10.4407 0.0513823 0)
(10.4592 0.0512827 0)
(10.4782 0.0512111 0)
(10.4977 0.051163 0)
(10.5176 0.0511334 0)
(10.538 0.0511189 0)
(10.5588 0.0511157 0)
(10.5801 0.0511205 0)
(10.6018 0.0511314 0)
(10.624 0.0511457 0)
(10.6467 0.0511613 0)
(10.6698 0.0511771 0)
(10.6935 0.0511912 0)
(10.7176 0.0512025 0)
(10.7422 0.0512107 0)
(10.7673 0.0512153 0)
(10.7929 0.051216 0)
(10.819 0.0512153 0)
(10.8456 0.0512117 0)
(10.8728 0.0512074 0)
(10.9004 0.0512042 0)
(10.9285 0.0512007 0)
(10.9571 0.0512026 0)
(10.9863 0.0512095 0)
(11.016 0.051216 0)
(11.0461 0.0512239 0)
(11.0768 0.0512347 0)
(11.108 0.0512502 0)
(11.1396 0.051268 0)
(11.1718 0.0512884 0)
(11.2045 0.051311 0)
(11.2376 0.051335 0)
(11.2713 0.0513606 0)
(11.3055 0.0513873 0)
(11.3401 0.0514153 0)
(11.3752 0.0514441 0)
(11.4108 0.0514733 0)
(11.4469 0.0515036 0)
(11.4835 0.0515339 0)
(11.5205 0.051565 0)
(11.558 0.0515959 0)
(11.596 0.0516249 0)
(11.6344 0.0516516 0)
(11.6733 0.0516715 0)
(11.7127 0.0516896 0)
(11.7525 0.0517063 0)
(11.7928 0.0517217 0)
(11.8335 0.0517355 0)
(11.8746 0.0517479 0)
(11.9162 0.0517582 0)
(11.9583 0.0517668 0)
(12.0007 0.0517736 0)
(12.0436 0.0517781 0)
(12.0869 0.0517808 0)
(12.1307 0.0517809 0)
(12.1749 0.0517792 0)
(12.2195 0.0517748 0)
(12.2645 0.0517685 0)
(12.3099 0.0517596 0)
(12.3557 0.0517486 0)
(12.4019 0.0517342 0)
(12.4485 0.051718 0)
(12.4954 0.0516975 0)
(12.5428 0.0516759 0)
(12.5905 0.0516498 0)
(12.6386 0.0516196 0)
(12.6871 0.0515856 0)
(12.7359 0.0515481 0)
(12.7851 0.0515072 0)
(12.8347 0.0514621 0)
(12.8845 0.0514134 0)
(12.9348 0.0513605 0)
(12.9853 0.0513036 0)
(13.0362 0.0512433 0)
(13.0874 0.0511785 0)
(13.1389 0.0511105 0)
(13.1907 0.0510381 0)
(13.2428 0.0509615 0)
(13.2952 0.0508811 0)
(13.3479 0.0507959 0)
(13.4008 0.050707 0)
(13.454 0.0506133 0)
(13.5075 0.0505151 0)
(13.5613 0.0504128 0)
(13.6153 0.0503054 0)
(13.6695 0.0501946 0)
(13.724 0.0500778 0)
(13.7787 0.0499582 0)
(13.8337 0.049836 0)
(13.8888 0.0497098 0)
(13.9442 0.049581 0)
(13.9997 0.0494486 0)
(14.0555 0.0493135 0)
(14.1114 0.0491752 0)
(14.1675 0.0490339 0)
(14.2238 0.04889 0)
(14.2803 0.0487429 0)
(14.3369 0.0485939 0)
(14.3936 0.0484422 0)
(14.4505 0.0482889 0)