/*--------------------------------*- C++ -*----------------------------------*\
| =========                 |                                                 |
| \\      /  F ield         | OpenFOAM: The Open Source CFD Toolbox           |
|  \\    /   O peration     | Version:  v1812                                 |
|   \\  /    A nd           | Web:      www.OpenFOAM.com                      |
|    \\/     M anipulation  |                                                 |
\*---------------------------------------------------------------------------*/
FoamFile
{
    version     2.0;
    format      ascii;
    class       surfaceScalarField;
    location    "2";
    object      phi;
}
// * * * * * * * * * * * * * * * * * * * * * * * * * * * * * * * * * * * * * //

dimensions      [1 0 -1 0 0 0 0];
oriented        oriented;


internalField   nonuniform List<scalar> 
999
(
1.776356839e-15
4.884981308e-15
2.220446049e-15
5.773159728e-15
5.773159728e-15
5.773159728e-15
5.773159728e-15
7.993605777e-15
7.993605777e-15
7.105427358e-15
7.105427358e-15
3.996802889e-15
2.664535259e-15
-8.881784197e-16
-3.108624469e-15
-3.108624469e-15
-3.552713679e-15
-2.220446049e-15
-3.552713679e-15
-3.108624469e-15
-2.220446049e-15
-2.220446049e-15
-3.108624469e-15
-2.220446049e-15
-2.220446049e-15
-8.881784197e-16
4.440892099e-16
1.33226763e-15
1.33226763e-15
8.881784197e-16
8.881784197e-16
2.664535259e-15
4.440892099e-16
2.664535259e-15
1.776356839e-15
1.776356839e-15
1.33226763e-15
2.220446049e-15
3.108624469e-15
3.552713679e-15
5.329070518e-15
4.884981308e-15
4.884981308e-15
6.217248938e-15
7.549516567e-15
6.217248938e-15
5.329070518e-15
4.440892099e-15
6.217248938e-15
5.773159728e-15
7.105427358e-15
6.661338148e-15
7.993605777e-15
7.549516567e-15
6.661338148e-15
8.437694987e-15
9.325873407e-15
7.993605777e-15
9.325873407e-15
8.881784197e-15
9.769962617e-15
1.021405183e-14
1.065814104e-14
9.769962617e-15
9.769962617e-15
1.065814104e-14
9.769962617e-15
1.154631946e-14
1.154631946e-14
1.110223025e-14
1.110223025e-14
1.199040867e-14
1.154631946e-14
1.154631946e-14
1.154631946e-14
1.243449788e-14
1.199040867e-14
1.154631946e-14
1.154631946e-14
1.199040867e-14
1.199040867e-14
1.287858709e-14
8.437694987e-15
9.769962617e-15
1.199040867e-14
1.154631946e-14
1.199040867e-14
1.287858709e-14
1.154631946e-14
1.110223025e-14
1.199040867e-14
1.154631946e-14
1.243449788e-14
1.33226763e-14
1.199040867e-14
1.421085472e-14
1.421085472e-14
1.376676551e-14
1.598721155e-14
1.376676551e-14
1.154631946e-14
1.154631946e-14
5.329070518e-15
-6.217248938e-15
-9.325873407e-15
-1.199040867e-14
-1.687538997e-14
-1.909583602e-14
-1.687538997e-14
-1.998401444e-14
-1.909583602e-14
-1.998401444e-14
-2.087219286e-14
-2.042810365e-14
-1.731947918e-14
-1.953992523e-14
-2.042810365e-14
-1.509903313e-14
-1.509903313e-14
-1.509903313e-14
-1.509903313e-14
-1.33226763e-14
-1.509903313e-14
-1.465494393e-14
-1.465494393e-14
-1.421085472e-14
-1.509903313e-14
-1.421085472e-14
-1.465494393e-14
-1.598721155e-14
-1.598721155e-14
-1.554312234e-14
-1.598721155e-14
-1.598721155e-14
-1.509903313e-14
-1.465494393e-14
-1.421085472e-14
-1.421085472e-14
-1.33226763e-14
-1.376676551e-14
-1.421085472e-14
-1.376676551e-14
-1.287858709e-14
-1.376676551e-14
-1.554312234e-14
-1.465494393e-14
-1.376676551e-14
-1.110223025e-14
-1.243449788e-14
-1.199040867e-14
-1.021405183e-14
-1.065814104e-14
-1.021405183e-14
-1.021405183e-14
-1.110223025e-14
-9.325873407e-15
-7.105427358e-15
-6.661338148e-15
-7.105427358e-15
-6.661338148e-15
-1.776356839e-15
7.105427358e-15
1.509903313e-14
1.909583602e-14
2.176037128e-14
2.309263891e-14
2.26485497e-14
2.486899575e-14
2.486899575e-14
2.531308496e-14
2.797762022e-14
2.664535259e-14
2.797762022e-14
2.664535259e-14
2.575717417e-14
2.353672812e-14
2.353672812e-14
2.353672812e-14
2.486899575e-14
2.664535259e-14
2.398081733e-14
2.575717417e-14
2.70894418e-14
2.620126338e-14
2.620126338e-14
2.486899575e-14
2.753353101e-14
2.70894418e-14
2.620126338e-14
2.70894418e-14
2.797762022e-14
2.797762022e-14
2.753353101e-14
3.019806627e-14
3.019806627e-14
2.975397706e-14
2.930988785e-14
3.064215548e-14
3.241851232e-14
3.15303339e-14
2.930988785e-14
3.197442311e-14
3.241851232e-14
3.15303339e-14
3.375077995e-14
3.463895837e-14
3.463895837e-14
3.508304758e-14
3.463895837e-14
3.508304758e-14
3.5971226e-14
3.730349363e-14
3.552713679e-14
3.685940442e-14
3.552713679e-14
3.685940442e-14
3.819167205e-14
3.685940442e-14
3.996802889e-14
3.996802889e-14
3.819167205e-14
3.907985047e-14
3.952393968e-14
3.907985047e-14
4.04121181e-14
3.996802889e-14
4.085620731e-14
3.952393968e-14
4.174438573e-14
4.04121181e-14
3.996802889e-14
4.307665336e-14
4.396483178e-14
4.485301019e-14
4.440892099e-14
4.485301019e-14
4.52970994e-14
4.707345624e-14
4.618527782e-14
4.707345624e-14
4.796163466e-14
4.796163466e-14
4.751754545e-14
5.107025913e-14
4.97379915e-14
4.97379915e-14
5.329070518e-14
5.773159728e-14
6.261657859e-14
7.238654121e-14
7.904787935e-14
8.171241461e-14
7.993605777e-14
7.949196856e-14
8.082423619e-14
7.860379014e-14
7.904787935e-14
8.082423619e-14
8.038014698e-14
8.215650382e-14
8.260059303e-14
8.215650382e-14
8.260059303e-14
7.949196856e-14
8.215650382e-14
8.437694987e-14
8.348877145e-14
8.304468224e-14
8.171241461e-14
8.304468224e-14
8.304468224e-14
8.304468224e-14
8.526512829e-14
8.348877145e-14
8.482103908e-14
8.393286066e-14
8.348877145e-14
8.615330671e-14
8.704148513e-14
8.748557434e-14
8.792966355e-14
8.792966355e-14
8.926193118e-14
8.926193118e-14
8.704148513e-14
8.837375276e-14
8.792966355e-14
8.837375276e-14
8.926193118e-14
8.926193118e-14
8.970602039e-14
8.792966355e-14
8.926193118e-14
8.970602039e-14
9.059419881e-14
9.103828802e-14
8.970602039e-14
8.970602039e-14
9.103828802e-14
9.148237723e-14
9.059419881e-14
9.103828802e-14
9.01501096e-14
9.148237723e-14
9.148237723e-14
9.01501096e-14
9.281464486e-14
9.237055565e-14
9.281464486e-14
9.237055565e-14
9.148237723e-14
9.192646644e-14
9.281464486e-14
9.148237723e-14
9.103828802e-14
9.414691249e-14
9.237055565e-14
9.237055565e-14
9.237055565e-14
9.281464486e-14
9.281464486e-14
9.370282328e-14
9.414691249e-14
9.414691249e-14
9.370282328e-14
9.503509091e-14
9.237055565e-14
9.325873407e-14
9.503509091e-14
9.370282328e-14
9.237055565e-14
9.325873407e-14
9.192646644e-14
9.325873407e-14
9.370282328e-14
9.370282328e-14
9.325873407e-14
9.636735854e-14
9.725553696e-14
9.769962617e-14
9.858780459e-14
9.947598301e-14
9.947598301e-14
9.725553696e-14
1.003641614e-13
1.012523398e-13
1.025846075e-13
1.056932319e-13
1.034727859e-13
1.092459456e-13
1.141309269e-13
1.176836406e-13
1.234568003e-13
1.252331572e-13
1.27009514e-13
1.287858709e-13
1.318944953e-13
1.350031198e-13
1.35447209e-13
1.367794766e-13
1.358912982e-13
1.385558335e-13
1.376676551e-13
1.385558335e-13
1.407762795e-13
1.398881011e-13
1.385558335e-13
1.372235658e-13
1.385558335e-13
1.403321903e-13
1.389999227e-13
1.381117443e-13
1.381117443e-13
1.412203687e-13
1.407762795e-13
1.389999227e-13
1.407762795e-13
1.385558335e-13
1.398881011e-13
1.416644579e-13
1.407762795e-13
1.421085472e-13
1.425526364e-13
1.421085472e-13
1.416644579e-13
1.416644579e-13
1.407762795e-13
1.416644579e-13
1.43884904e-13
1.434408148e-13
1.434408148e-13
1.416644579e-13
1.434408148e-13
1.434408148e-13
1.425526364e-13
1.434408148e-13
1.429967256e-13
1.447730824e-13
1.43884904e-13
1.429967256e-13
1.416644579e-13
1.403321903e-13
1.367794766e-13
1.350031198e-13
1.318944953e-13
1.358912982e-13
1.327826737e-13
1.278976924e-13
1.314504061e-13
1.305622277e-13
1.301181385e-13
1.292299601e-13
1.274536032e-13
1.283417816e-13
1.265654248e-13
1.278976924e-13
1.283417816e-13
1.292299601e-13
1.301181385e-13
1.287858709e-13
1.287858709e-13
1.278976924e-13
1.274536032e-13
1.283417816e-13
1.278976924e-13
1.305622277e-13
1.278976924e-13
1.278976924e-13
1.283417816e-13
1.27009514e-13
1.265654248e-13
1.261213356e-13
1.265654248e-13
1.283417816e-13
1.296740493e-13
1.296740493e-13
1.310063169e-13
1.310063169e-13
1.323385845e-13
1.323385845e-13
1.336708522e-13
1.336708522e-13
1.363353874e-13
1.345590306e-13
1.35447209e-13
1.372235658e-13
1.407762795e-13
1.412203687e-13
1.421085472e-13
1.429967256e-13
1.478817069e-13
1.536548666e-13
1.572075803e-13
1.616484724e-13
1.6298074e-13
1.652011861e-13
1.669775429e-13
1.683098105e-13
1.696420782e-13
1.687538997e-13
1.705302566e-13
1.683098105e-13
1.683098105e-13
1.718625242e-13
1.723066134e-13
1.727507026e-13
1.731947918e-13
1.780797731e-13
1.789679516e-13
1.811883976e-13
1.829647545e-13
1.82076576e-13
1.847411113e-13
1.825206652e-13
1.82076576e-13
1.829647545e-13
1.838529329e-13
1.838529329e-13
1.856292897e-13
1.856292897e-13
1.860733789e-13
1.856292897e-13
1.842970221e-13
1.834088437e-13
1.865174681e-13
1.838529329e-13
1.856292897e-13
1.869615573e-13
1.887379142e-13
1.865174681e-13
1.851852005e-13
1.825206652e-13
1.860733789e-13
1.878497358e-13
1.90514271e-13
1.88293825e-13
1.896260926e-13
1.874056466e-13
1.878497358e-13
1.838529329e-13
1.847411113e-13
1.865174681e-13
1.891820034e-13
1.851852005e-13
1.851852005e-13
1.856292897e-13
1.869615573e-13
1.856292897e-13
1.834088437e-13
1.842970221e-13
1.811883976e-13
1.807443084e-13
1.776356839e-13
1.718625242e-13
1.696420782e-13
1.647570969e-13
1.625366508e-13
1.616484724e-13
1.634248292e-13
1.598721155e-13
1.612043832e-13
1.6298074e-13
1.616484724e-13
1.625366508e-13
1.594280263e-13
1.585398479e-13
1.589839371e-13
1.572075803e-13
1.580957587e-13
1.567634911e-13
1.580957587e-13
1.563194019e-13
1.563194019e-13
1.554312234e-13
1.572075803e-13
1.572075803e-13
1.540989558e-13
1.567634911e-13
1.558753127e-13
1.558753127e-13
1.540989558e-13
1.536548666e-13
1.540989558e-13
1.536548666e-13
1.540989558e-13
1.54543045e-13
1.540989558e-13
1.549871342e-13
1.554312234e-13
1.536548666e-13
1.554312234e-13
1.527666882e-13
1.554312234e-13
1.52322599e-13
1.518785098e-13
1.527666882e-13
1.514344206e-13
1.52322599e-13
1.54543045e-13
1.554312234e-13
1.554312234e-13
1.527666882e-13
1.536548666e-13
1.527666882e-13
1.514344206e-13
1.509903313e-13
1.509903313e-13
1.514344206e-13
1.52322599e-13
1.496580637e-13
1.518785098e-13
1.518785098e-13
1.509903313e-13
1.509903313e-13
1.527666882e-13
1.509903313e-13
1.518785098e-13
1.514344206e-13
1.527666882e-13
1.52322599e-13
1.518785098e-13
1.518785098e-13
1.527666882e-13
1.514344206e-13
1.496580637e-13
1.509903313e-13
1.505462421e-13
1.518785098e-13
1.501021529e-13
1.501021529e-13
1.501021529e-13
1.514344206e-13
1.518785098e-13
1.501021529e-13
1.483257961e-13
1.509903313e-13
1.501021529e-13
1.492139745e-13
1.496580637e-13
1.496580637e-13
1.483257961e-13
1.496580637e-13
1.496580637e-13
1.483257961e-13
1.483257961e-13
1.469935285e-13
1.469935285e-13
1.474376177e-13
1.4610535e-13
1.469935285e-13
1.469935285e-13
1.469935285e-13
1.469935285e-13
1.443289932e-13
1.456612608e-13
1.452171716e-13
1.4610535e-13
1.452171716e-13
1.447730824e-13
1.443289932e-13
1.429967256e-13
1.443289932e-13
1.456612608e-13
1.447730824e-13
1.429967256e-13
1.434408148e-13
1.434408148e-13
1.434408148e-13
1.421085472e-13
1.421085472e-13
1.421085472e-13
1.416644579e-13
1.421085472e-13
1.412203687e-13
1.421085472e-13
1.425526364e-13
1.416644579e-13
1.407762795e-13
1.398881011e-13
1.407762795e-13
1.398881011e-13
1.403321903e-13
1.389999227e-13
1.385558335e-13
1.372235658e-13
1.376676551e-13
1.385558335e-13
1.376676551e-13
1.363353874e-13
1.363353874e-13
1.350031198e-13
1.341149414e-13
1.323385845e-13
1.327826737e-13
1.327826737e-13
1.33226763e-13
1.323385845e-13
1.327826737e-13
1.318944953e-13
1.323385845e-13
1.327826737e-13
1.336708522e-13
1.314504061e-13
1.323385845e-13
1.310063169e-13
1.310063169e-13
1.296740493e-13
1.305622277e-13
1.301181385e-13
1.301181385e-13
1.296740493e-13
1.296740493e-13
1.287858709e-13
1.292299601e-13
1.278976924e-13
1.301181385e-13
1.283417816e-13
1.274536032e-13
1.278976924e-13
1.274536032e-13
1.261213356e-13
1.261213356e-13
1.265654248e-13
1.252331572e-13
1.256772464e-13
1.261213356e-13
1.252331572e-13
1.265654248e-13
1.27009514e-13
1.261213356e-13
1.256772464e-13
1.243449788e-13
1.239008895e-13
1.243449788e-13
1.216804435e-13
1.225686219e-13
1.234568003e-13
1.230127111e-13
1.212363543e-13
1.216804435e-13
1.221245327e-13
1.230127111e-13
1.239008895e-13
1.24789068e-13
1.24789068e-13
1.265654248e-13
1.301181385e-13
1.345590306e-13
1.363353874e-13
1.376676551e-13
1.394440119e-13
1.394440119e-13
1.394440119e-13
1.398881011e-13
1.394440119e-13
1.372235658e-13
1.385558335e-13
1.389999227e-13
1.385558335e-13
1.398881011e-13
1.447730824e-13
1.496580637e-13
1.509903313e-13
1.527666882e-13
1.532107774e-13
1.527666882e-13
1.518785098e-13
1.527666882e-13
1.527666882e-13
1.558753127e-13
1.598721155e-13
1.625366508e-13
1.678657213e-13
1.678657213e-13
1.709743458e-13
1.696420782e-13
1.705302566e-13
1.687538997e-13
1.696420782e-13
1.69197989e-13
1.709743458e-13
1.696420782e-13
1.687538997e-13
1.683098105e-13
1.678657213e-13
1.678657213e-13
1.665334537e-13
1.669775429e-13
1.652011861e-13
1.660893645e-13
1.638689184e-13
1.643130076e-13
1.647570969e-13
1.638689184e-13
1.638689184e-13
1.634248292e-13
1.620925616e-13
1.625366508e-13
1.620925616e-13
1.620925616e-13
1.612043832e-13
1.598721155e-13
1.616484724e-13
1.585398479e-13
1.594280263e-13
1.598721155e-13
1.60760294e-13
1.598721155e-13
1.580957587e-13
1.572075803e-13
1.54543045e-13
1.563194019e-13
1.558753127e-13
1.563194019e-13
1.572075803e-13
1.572075803e-13
1.563194019e-13
1.580957587e-13
1.580957587e-13
1.580957587e-13
1.572075803e-13
1.563194019e-13
1.54543045e-13
1.527666882e-13
1.492139745e-13
1.465494393e-13
1.398881011e-13
1.367794766e-13
1.350031198e-13
1.350031198e-13
1.350031198e-13
1.33226763e-13
1.327826737e-13
1.341149414e-13
1.323385845e-13
1.314504061e-13
1.305622277e-13
1.310063169e-13
1.310063169e-13
1.310063169e-13
1.305622277e-13
1.305622277e-13
1.301181385e-13
1.296740493e-13
1.305622277e-13
1.296740493e-13
1.283417816e-13
1.278976924e-13
1.27009514e-13
1.256772464e-13
1.24789068e-13
1.265654248e-13
1.278976924e-13
1.283417816e-13
1.292299601e-13
1.278976924e-13
1.27009514e-13
1.27009514e-13
1.27009514e-13
1.278976924e-13
1.256772464e-13
1.261213356e-13
1.252331572e-13
1.27009514e-13
1.265654248e-13
1.252331572e-13
1.256772464e-13
1.252331572e-13
1.256772464e-13
1.252331572e-13
1.24789068e-13
1.234568003e-13
1.234568003e-13
1.225686219e-13
1.212363543e-13
1.234568003e-13
1.203481759e-13
1.203481759e-13
1.199040867e-13
1.207922651e-13
1.172395514e-13
1.150191054e-13
1.127986593e-13
1.070254996e-13
1.012523398e-13
9.858780459e-14
9.681144775e-14
9.45910017e-14
9.636735854e-14
9.681144775e-14
9.636735854e-14
9.503509091e-14
9.547918012e-14
9.45910017e-14
9.237055565e-14
9.370282328e-14
9.281464486e-14
9.281464486e-14
9.325873407e-14
9.414691249e-14
9.370282328e-14
9.237055565e-14
9.237055565e-14
9.281464486e-14
9.325873407e-14
9.103828802e-14
9.148237723e-14
9.103828802e-14
9.059419881e-14
9.103828802e-14
9.059419881e-14
9.059419881e-14
8.837375276e-14
8.748557434e-14
8.881784197e-14
8.792966355e-14
8.748557434e-14
8.704148513e-14
8.792966355e-14
8.615330671e-14
8.704148513e-14
8.526512829e-14
8.393286066e-14
8.171241461e-14
7.815970093e-14
7.505107646e-14
6.794564911e-14
6.483702464e-14
6.30606678e-14
6.483702464e-14
6.528111385e-14
6.30606678e-14
6.217248938e-14
6.261657859e-14
6.172840017e-14
6.084022175e-14
6.128431096e-14
6.084022175e-14
6.039613254e-14
5.950795412e-14
5.950795412e-14
5.950795412e-14
5.86197757e-14
5.773159728e-14
5.728750807e-14
5.595524044e-14
5.595524044e-14
5.728750807e-14
5.462297281e-14
5.595524044e-14
5.551115123e-14
5.551115123e-14
5.551115123e-14
5.329070518e-14
5.373479439e-14
5.195843755e-14
5.151434834e-14
5.240252676e-14
5.373479439e-14
5.151434834e-14
5.062616992e-14
5.018208071e-14
4.884981308e-14
4.97379915e-14
5.062616992e-14
4.97379915e-14
4.840572387e-14
4.796163466e-14
4.796163466e-14
4.662936703e-14
4.662936703e-14
4.707345624e-14
4.618527782e-14
4.485301019e-14
4.707345624e-14
4.52970994e-14
4.440892099e-14
4.574118861e-14
4.574118861e-14
4.52970994e-14
4.440892099e-14
4.574118861e-14
4.263256415e-14
4.440892099e-14
4.352074257e-14
4.130029652e-14
3.907985047e-14
4.085620731e-14
3.996802889e-14
3.952393968e-14
3.863576126e-14
3.952393968e-14
3.952393968e-14
3.819167205e-14
3.5971226e-14
3.463895837e-14
2.797762022e-14
2.26485497e-14
1.865174681e-14
1.865174681e-14
1.643130076e-14
1.731947918e-14
1.643130076e-14
1.598721155e-14
1.598721155e-14
1.687538997e-14
1.421085472e-14
1.509903313e-14
1.554312234e-14
1.509903313e-14
1.421085472e-14
1.154631946e-14
1.243449788e-14
1.110223025e-14
1.154631946e-14
1.065814104e-14
1.021405183e-14
9.769962617e-15
7.549516567e-15
7.549516567e-15
7.549516567e-15
6.661338148e-15
6.661338148e-15
6.217248938e-15
4.884981308e-15
6.661338148e-15
4.884981308e-15
3.996802889e-15
5.329070518e-15
3.996802889e-15
5.773159728e-15
2.664535259e-15
3.552713679e-15
3.996802889e-15
2.220446049e-15
1.33226763e-15
1.776356839e-15
3.108624469e-15
2.664535259e-15
)
;

boundaryField
{
    sides
    {
        type            calculated;
        value           uniform 0;
    }
    empty
    {
        type            empty;
        value           nonuniform 0();
    }
}


// ************************************************************************* //
