/*--------------------------------*- C++ -*----------------------------------*\
| =========                 |                                                 |
| \\      /  F ield         | OpenFOAM: The Open Source CFD Toolbox           |
|  \\    /   O peration     | Version:  v1812                                 |
|   \\  /    A nd           | Web:      www.OpenFOAM.com                      |
|    \\/     M anipulation  |                                                 |
\*---------------------------------------------------------------------------*/
FoamFile
{
    version     2.0;
    format      ascii;
    class       volVectorField;
    location    "2";
    object      U;
}
// * * * * * * * * * * * * * * * * * * * * * * * * * * * * * * * * * * * * * //

dimensions      [0 1 -1 0 0 0 0];


internalField   nonuniform List<vector> 
1000
(
(1.487709348e-15 0 0)
(-5.95083739e-16 0 0)
(2.043120837e-15 0 0)
(-6.347559883e-16 0 0)
(2.7373852e-15 0 0)
(-7.141004868e-16 0 0)
(2.380334956e-15 0 0)
(3.967224929e-17 0 0)
(2.99525482e-15 0 0)
(-1.388528724e-16 0 0)
(2.975418695e-15 0 0)
(-6.942643622e-16 0 0)
(2.122465336e-15 0 0)
(-1.467873223e-15 0 0)
(1.090986855e-15 0 0)
(-2.201809834e-15 0 0)
(7.141004868e-16 0 0)
(-1.983612463e-15 0 0)
(1.150495229e-15 0 0)
(-2.023284713e-15 0 0)
(7.537727361e-16 0 0)
(-1.428200974e-15 0 0)
(9.71970107e-16 0 0)
(-1.904267965e-15 0 0)
(9.124617331e-16 0 0)
(-1.62656222e-15 0 0)
(1.269511977e-15 0 0)
(-1.110822979e-15 0 0)
(1.3686926e-15 0 0)
(-9.521339824e-16 0 0)
(1.051314606e-15 0 0)
(-7.934449853e-16 0 0)
(1.229839727e-15 0 0)
(-7.934449853e-16 0 0)
(1.527381597e-15 0 0)
(-7.934449853e-16 0 0)
(1.586889971e-15 0 0)
(-7.934449853e-16 0 0)
(1.666234469e-15 0 0)
(-4.165586172e-16 0 0)
(1.527381597e-15 0 0)
(-2.380334955e-16 0 0)
(1.666234469e-15 0 0)
(5.950837399e-17 0 0)
(2.162137585e-15 0 0)
(1.785251218e-16 0 0)
(1.904267965e-15 0 0)
(-1.388528723e-16 0 0)
(1.943940214e-15 0 0)
(-1.190167477e-16 0 0)
(2.420007205e-15 0 0)
(9.91806233e-17 0 0)
(2.757221324e-15 0 0)
(1.368361166e-25 0 0)
(2.539023953e-15 0 0)
(1.19016748e-16 0 0)
(2.856401947e-15 0 0)
(7.934449869e-17 0 0)
(3.25312444e-15 0 0)
(7.93444987e-17 0 0)
(3.153943817e-15 0 0)
(3.570502436e-16 0 0)
(3.134107692e-15 0 0)
(7.339366116e-16 0 0)
(3.114271567e-15 0 0)
(5.355753653e-16 0 0)
(3.352305063e-15 0 0)
(3.768863682e-16 0 0)
(3.332468938e-15 0 0)
(5.554114899e-16 0 0)
(3.630010808e-15 0 0)
(5.554114899e-16 0 0)
(3.372141188e-15 0 0)
(6.149198638e-16 0 0)
(3.649846933e-15 0 0)
(4.165586175e-16 0 0)
(3.709355306e-15 0 0)
(7.736088609e-16 0 0)
(3.451485686e-15 0 0)
(4.562308667e-16 0 0)
(3.471321811e-15 0 0)
(1.090986855e-15 0 0)
(3.213452191e-15 0 0)
(5.355753652e-16 0 0)
(2.876238072e-15 0 0)
(1.448037098e-15 0 0)
(2.420007205e-15 0 0)
(1.666234469e-15 0 0)
(2.558860078e-15 0 0)
(1.606726095e-15 0 0)
(2.539023953e-15 0 0)
(1.844759591e-15 0 0)
(2.519187829e-15 0 0)
(2.162137585e-15 0 0)
(2.221645959e-15 0 0)
(2.340662707e-15 0 0)
(2.519187829e-15 0 0)
(2.420007205e-15 0 0)
(2.300990458e-15 0 0)
(2.836565823e-15 0 0)
(2.18197371e-15 0 0)
(2.082793086e-15 0 0)
(1.547217722e-15 0 0)
(2.380334955e-16 0 0)
(-1.666234469e-15 0 0)
(-1.289348101e-15 0 0)
(-3.153943817e-15 0 0)
(-3.134107692e-15 0 0)
(-3.352305063e-15 0 0)
(-2.975418695e-15 0 0)
(-4.086241675e-15 0 0)
(-3.114271568e-15 0 0)
(-4.304439045e-15 0 0)
(-3.054763194e-15 0 0)
(-4.165586173e-15 0 0)
(-2.162137585e-15 0 0)
(-4.998703408e-15 0 0)
(-2.261318209e-15 0 0)
(-3.213452191e-15 0 0)
(-2.142301461e-15 0 0)
(-3.312632814e-15 0 0)
(-1.88443184e-15 0 0)
(-3.272960564e-15 0 0)
(-2.102629211e-15 0 0)
(-3.312632814e-15 0 0)
(-2.122465336e-15 0 0)
(-3.451485686e-15 0 0)
(-1.745578968e-15 0 0)
(-3.372141188e-15 0 0)
(-2.043120838e-15 0 0)
(-3.709355306e-15 0 0)
(-2.023284713e-15 0 0)
(-3.76886368e-15 0 0)
(-1.943940214e-15 0 0)
(-3.630010808e-15 0 0)
(-2.062956962e-15 0 0)
(-3.431649562e-15 0 0)
(-1.824923467e-15 0 0)
(-3.213452191e-15 0 0)
(-1.62656222e-15 0 0)
(-3.352305063e-15 0 0)
(-1.824923467e-15 0 0)
(-3.034927069e-15 0 0)
(-1.62656222e-15 0 0)
(-3.25312444e-15 0 0)
(-2.102629212e-15 0 0)
(-3.411813437e-15 0 0)
(-1.448037099e-15 0 0)
(-2.796893573e-15 0 0)
(-1.527381597e-15 0 0)
(-2.796893573e-15 0 0)
(-8.926256088e-16 0 0)
(-3.034927069e-15 0 0)
(-9.91806232e-16 0 0)
(-2.43984333e-15 0 0)
(-8.529533596e-16 0 0)
(-2.578696202e-15 0 0)
(-5.355753655e-16 0 0)
(-2.122465336e-15 0 0)
(-3.372141191e-16 0 0)
(-1.943940214e-15 0 0)
(1.765415092e-15 0 0)
(1.11082298e-15 0 0)
(4.205258422e-15 0 0)
(2.856401948e-15 0 0)
(5.117720155e-15 0 0)
(3.332468939e-15 0 0)
(5.316081402e-15 0 0)
(3.372141188e-15 0 0)
(5.613623271e-15 0 0)
(3.887880429e-15 0 0)
(5.95083739e-15 0 0)
(3.749027556e-15 0 0)
(5.811984517e-15 0 0)
(3.729191432e-15 0 0)
(5.454934274e-15 0 0)
(3.213452191e-15 0 0)
(5.216900778e-15 0 0)
(3.391977313e-15 0 0)
(5.65329552e-15 0 0)
(3.80853593e-15 0 0)
(5.435098149e-15 0 0)
(4.1060778e-15 0 0)
(5.633459396e-15 0 0)
(3.729191432e-15 0 0)
(5.435098149e-15 0 0)
(3.55066631e-15 0 0)
(5.970673514e-15 0 0)
(3.451485687e-15 0 0)
(5.851656767e-15 0 0)
(4.006897177e-15 0 0)
(6.050018013e-15 0 0)
(3.927552678e-15 0 0)
(6.109526387e-15 0 0)
(4.344111296e-15 0 0)
(6.625265627e-15 0 0)
(4.264766797e-15 0 0)
(6.50624888e-15 0 0)
(4.244930672e-15 0 0)
(7.02198812e-15 0 0)
(4.284602922e-15 0 0)
(6.46657663e-15 0 0)
(4.383783545e-15 0 0)
(7.061660369e-15 0 0)
(4.562308666e-15 0 0)
(7.379038363e-15 0 0)
(5.018539533e-15 0 0)
(7.458382862e-15 0 0)
(4.62181704e-15 0 0)
(7.894777604e-15 0 0)
(4.840014411e-15 0 0)
(8.172483349e-15 0 0)
(4.959031159e-15 0 0)
(7.874941479e-15 0 0)
(4.91935891e-15 0 0)
(7.815433106e-15 0 0)
(5.236736904e-15 0 0)
(8.192319474e-15 0 0)
(5.395425901e-15 0 0)
(8.589041966e-15 0 0)
(5.335917527e-15 0 0)
(8.291500097e-15 0 0)
(5.752476144e-15 0 0)
(8.410516845e-15 0 0)
(5.613623272e-15 0 0)
(8.628714216e-15 0 0)
(5.514442649e-15 0 0)
(8.827075462e-15 0 0)
(5.653295521e-15 0 0)
(8.985764459e-15 0 0)
(5.395425901e-15 0 0)
(9.263470204e-15 0 0)
(5.811984518e-15 0 0)
(9.699864946e-15 0 0)
(6.208707011e-15 0 0)
(9.640356572e-15 0 0)
(6.446740507e-15 0 0)
(9.779209444e-15 0 0)
(7.260021617e-15 0 0)
(9.422159201e-15 0 0)
(7.458382863e-15 0 0)
(9.243634079e-15 0 0)
(7.557563486e-15 0 0)
(9.680028821e-15 0 0)
(7.993958228e-15 0 0)
(9.580848198e-15 0 0)
(8.390680721e-15 0 0)
(1.047347381e-14 0 0)
(1.019576806e-14 0 0)
(1.275462814e-14 0 0)
(1.327036738e-14 0 0)
(1.453987936e-14 0 0)
(1.408364849e-14 0 0)
(1.450020711e-14 0 0)
(1.404397624e-14 0 0)
(1.422250136e-14 0 0)
(1.416299299e-14 0 0)
(1.438119036e-14 0 0)
(1.453987936e-14 0 0)
(1.448037098e-14 0 0)
(1.477791285e-14 0 0)
(1.452004323e-14 0 0)
(1.495643797e-14 0 0)
(1.452004323e-14 0 0)
(1.446053486e-14 0 0)
(1.47382406e-14 0 0)
(1.535316047e-14 0 0)
(1.469856835e-14 0 0)
(1.499611022e-14 0 0)
(1.448037098e-14 0 0)
(1.501594635e-14 0 0)
(1.442086261e-14 0 0)
(1.545234109e-14 0 0)
(1.49762741e-14 0 0)
(1.565070234e-14 0 0)
(1.47382406e-14 0 0)
(1.555152171e-14 0 0)
(1.47382406e-14 0 0)
(1.620611383e-14 0 0)
(1.477791285e-14 0 0)
(1.636480282e-14 0 0)
(1.475807673e-14 0 0)
(1.674168919e-14 0 0)
(1.48969296e-14 0 0)
(1.670201694e-14 0 0)
(1.475807673e-14 0 0)
(1.672185307e-14 0 0)
(1.48969296e-14 0 0)
(1.670201694e-14 0 0)
(1.511512697e-14 0 0)
(1.686070594e-14 0 0)
(1.469856835e-14 0 0)
(1.680119756e-14 0 0)
(1.511512697e-14 0 0)
(1.703923106e-14 0 0)
(1.551184946e-14 0 0)
(1.707890331e-14 0 0)
(1.499611022e-14 0 0)
(1.699955881e-14 0 0)
(1.545234109e-14 0 0)
(1.733677293e-14 0 0)
(1.531348822e-14 0 0)
(1.719792006e-14 0 0)
(1.501594635e-14 0 0)
(1.757480643e-14 0 0)
(1.51349631e-14 0 0)
(1.769382317e-14 0 0)
(1.527381597e-14 0 0)
(1.753513418e-14 0 0)
(1.559119396e-14 0 0)
(1.749546193e-14 0 0)
(1.501594635e-14 0 0)
(1.773349542e-14 0 0)
(1.523414372e-14 0 0)
(1.743595355e-14 0 0)
(1.52143076e-14 0 0)
(1.795169279e-14 0 0)
(1.525397984e-14 0 0)
(1.775333155e-14 0 0)
(1.499611022e-14 0 0)
(1.809054567e-14 0 0)
(1.517463535e-14 0 0)
(1.813021792e-14 0 0)
(1.523414372e-14 0 0)
(1.816989016e-14 0 0)
(1.50556186e-14 0 0)
(1.850710428e-14 0 0)
(1.503578247e-14 0 0)
(1.848726816e-14 0 0)
(1.543250497e-14 0 0)
(1.803103729e-14 0 0)
(1.523414372e-14 0 0)
(1.785251217e-14 0 0)
(1.525397984e-14 0 0)
(1.809054567e-14 0 0)
(1.543250497e-14 0 0)
(1.767398705e-14 0 0)
(1.584906358e-14 0 0)
(1.826907079e-14 0 0)
(1.632513057e-14 0 0)
(1.834841529e-14 0 0)
(1.699955881e-14 0 0)
(1.840792366e-14 0 0)
(1.684086982e-14 0 0)
(1.836825141e-14 0 0)
(1.74756258e-14 0 0)
(1.88443184e-14 0 0)
(1.809054567e-14 0 0)
(2.003448588e-14 0 0)
(1.818972629e-14 0 0)
(2.062956962e-14 0 0)
(2.009399426e-14 0 0)
(2.235531246e-14 0 0)
(2.17403926e-14 0 0)
(2.312892132e-14 0 0)
(2.227596796e-14 0 0)
(2.366449669e-14 0 0)
(2.33471187e-14 0 0)
(2.45571223e-14 0 0)
(2.366449669e-14 0 0)
(2.527122278e-14 0 0)
(2.354547994e-14 0 0)
(2.550925628e-14 0 0)
(2.374384119e-14 0 0)
(2.586630652e-14 0 0)
(2.429925268e-14 0 0)
(2.550925628e-14 0 0)
(2.408105531e-14 0 0)
(2.527122278e-14 0 0)
(2.43984333e-14 0 0)
(2.546958403e-14 0 0)
(2.410089143e-14 0 0)
(2.527122278e-14 0 0)
(2.43984333e-14 0 0)
(2.546958403e-14 0 0)
(2.473564742e-14 0 0)
(2.533073116e-14 0 0)
(2.457695842e-14 0 0)
(2.519187829e-14 0 0)
(2.493400867e-14 0 0)
(2.542991178e-14 0 0)
(2.507286154e-14 0 0)
(2.582663427e-14 0 0)
(2.529105891e-14 0 0)
(2.558860078e-14 0 0)
(2.515220604e-14 0 0)
(2.539023953e-14 0 0)
(2.519187829e-14 0 0)
(2.56084369e-14 0 0)
(2.56877814e-14 0 0)
(2.556876465e-14 0 0)
(2.505302541e-14 0 0)
(2.57671259e-14 0 0)
(2.529105891e-14 0 0)
(2.59258149e-14 0 0)
(2.505302541e-14 0 0)
(2.628286514e-14 0 0)
(2.513236991e-14 0 0)
(2.652089864e-14 0 0)
(2.491417254e-14 0 0)
(2.628286514e-14 0 0)
(2.427941655e-14 0 0)
(2.580679815e-14 0 0)
(2.29503962e-14 0 0)
(2.495384479e-14 0 0)
(2.235531246e-14 0 0)
(2.608450389e-14 0 0)
(2.120481723e-14 0 0)
(2.562827303e-14 0 0)
(2.116514499e-14 0 0)
(2.55290924e-14 0 0)
(2.148252298e-14 0 0)
(2.495384479e-14 0 0)
(2.092711149e-14 0 0)
(2.497368091e-14 0 0)
(2.035186387e-14 0 0)
(2.519187829e-14 0 0)
(2.080809474e-14 0 0)
(2.505302541e-14 0 0)
(2.15023591e-14 0 0)
(2.467613905e-14 0 0)
(2.116514498e-14 0 0)
(2.451745005e-14 0 0)
(2.160153973e-14 0 0)
(2.42397443e-14 0 0)
(2.237514859e-14 0 0)
(2.394220243e-14 0 0)
(2.207760672e-14 0 0)
(2.33471187e-14 0 0)
(2.227596796e-14 0 0)
(2.322810195e-14 0 0)
(2.203793447e-14 0 0)
(2.299006845e-14 0 0)
(2.209744284e-14 0 0)
(2.358515219e-14 0 0)
(2.241482084e-14 0 0)
(2.392236631e-14 0 0)
(2.275203495e-14 0 0)
(2.427941655e-14 0 0)
(2.271236271e-14 0 0)
(2.487450029e-14 0 0)
(2.253383758e-14 0 0)
(2.513236991e-14 0 0)
(2.300990457e-14 0 0)
(2.554892853e-14 0 0)
(2.297023233e-14 0 0)
(2.632253739e-14 0 0)
(2.352564382e-14 0 0)
(2.665975151e-14 0 0)
(2.368433281e-14 0 0)
(2.735401587e-14 0 0)
(2.558860078e-14 0 0)
(2.927811996e-14 0 0)
(2.7215163e-14 0 0)
(3.060714031e-14 0 0)
(2.769122999e-14 0 0)
(3.138074917e-14 0 0)
(2.800860798e-14 0 0)
(3.267009727e-14 0 0)
(2.743336037e-14 0 0)
(3.348337838e-14 0 0)
(2.703663788e-14 0 0)
(3.360239513e-14 0 0)
(2.620352064e-14 0 0)
(3.556617147e-14 0 0)
(2.544974791e-14 0 0)
(3.659764995e-14 0 0)
(2.475548355e-14 0 0)
(3.91366739e-14 0 0)
(2.396203856e-14 0 0)
(4.177487848e-14 0 0)
(2.249416534e-14 0 0)
(4.401636056e-14 0 0)
(2.098661987e-14 0 0)
(4.532554478e-14 0 0)
(1.880464616e-14 0 0)
(4.766620749e-14 0 0)
(1.69003782e-14 0 0)
(5.014572307e-14 0 0)
(1.455971549e-14 0 0)
(5.318065014e-14 0 0)
(1.206036379e-14 0 0)
(5.556098509e-14 0 0)
(8.807239349e-15 0 0)
(5.825869804e-14 0 0)
(7.101332633e-15 0 0)
(6.004394925e-14 0 0)
(5.137556297e-15 0 0)
(6.301936795e-14 0 0)
(3.21345221e-15 0 0)
(6.492363591e-14 0 0)
(9.918064522e-17 0 0)
(6.664937875e-14 0 0)
(-1.269511951e-15 0 0)
(6.978348644e-14 0 0)
(-2.658040672e-15 0 0)
(7.099349004e-14 0 0)
(-4.344111262e-15 0 0)
(7.262005225e-14 0 0)
(-6.744282356e-15 0 0)
(-9.858610416e-15 0 0)
(1.020019046e-13 0 0)
(-7.470327293e-15 0 0)
(1.004467435e-13 0 0)
(-5.970707683e-15 0 0)
(9.75308165e-14 0 0)
(-3.554653861e-15 0 0)
(9.589234322e-14 0 0)
(-1.694014712e-15 0 0)
(9.292087473e-14 0 0)
(6.109561755e-16 0 0)
(8.956061596e-14 0 0)
(2.332741657e-15 0 0)
(8.542277665e-14 0 0)
(3.332488064e-15 0 0)
(8.045181533e-14 0 0)
(4.360005206e-15 0 0)
(7.634174676e-14 0 0)
(6.970454165e-15 0 0)
(7.264823919e-14 0 0)
(9.719756793e-15 0 0)
(6.981562436e-14 0 0)
(1.294116189e-14 0 0)
(6.678861439e-14 0 0)
(1.502396691e-14 0 0)
(6.356720929e-14 0 0)
(1.6579128e-14 0 0)
(6.131777987e-14 0 0)
(1.877301595e-14 0 0)
(5.915166265e-14 0 0)
(2.060588437e-14 0 0)
(5.729102349e-14 0 0)
(2.252206499e-14 0 0)
(5.4736116e-14 0 0)
(2.429939194e-14 0 0)
(5.340312079e-14 0 0)
(2.549353349e-14 0 0)
(5.140362797e-14 0 0)
(2.707646531e-14 0 0)
(5.040388155e-14 0 0)
(2.815952392e-14 0 0)
(4.843215947e-14 0 0)
(2.943697766e-14 0 0)
(4.743241306e-14 0 0)
(3.00479338e-14 0 0)
(4.659929105e-14 0 0)
(3.040895334e-14 0 0)
(4.621050078e-14 0 0)
(3.176971929e-14 0 0)
(4.512744217e-14 0 0)
(3.246398763e-14 0 0)
(4.484973483e-14 0 0)
(3.282500717e-14 0 0)
(4.393330062e-14 0 0)
(3.249175836e-14 0 0)
(4.354451035e-14 0 0)
(3.304717304e-14 0 0)
(4.287801274e-14 0 0)
(3.346373404e-14 0 0)
(4.351673962e-14 0 0)
(3.438016825e-14 0 0)
(4.290578348e-14 0 0)
(3.390806578e-14 0 0)
(4.273915907e-14 0 0)
(3.376921211e-14 0 0)
(4.190603706e-14 0 0)
(3.324156817e-14 0 0)
(4.22670566e-14 0 0)
(3.413023165e-14 0 0)
(4.160055899e-14 0 0)
(3.396360725e-14 0 0)
(4.135062239e-14 0 0)
(3.440793898e-14 0 0)
(4.146170533e-14 0 0)
(3.465787559e-14 0 0)
(4.154501753e-14 0 0)
(3.426908531e-14 0 0)
(4.093406139e-14 0 0)
(3.501889512e-14 0 0)
(4.115622726e-14 0 0)
(3.496335366e-14 0 0)
(4.082297845e-14 0 0)
(3.521329026e-14 0 0)
(4.071189552e-14 0 0)
(3.501889512e-14 0 0)
(4.029533451e-14 0 0)
(3.532437319e-14 0 0)
(4.012871011e-14 0 0)
(3.535214393e-14 0 0)
(3.985100278e-14 0 0)
(3.496335366e-14 0 0)
(3.976769058e-14 0 0)
(3.593532933e-14 0 0)
(3.971214911e-14 0 0)
(3.551876833e-14 0 0)
(3.890679783e-14 0 0)
(3.635189034e-14 0 0)
(3.86290905e-14 0 0)
(3.59908708e-14 0 0)
(3.837915389e-14 0 0)
(3.665736841e-14 0 0)
(3.804590509e-14 0 0)
(3.687953428e-14 0 0)
(3.785150995e-14 0 0)
(3.651851474e-14 0 0)
(3.737940748e-14 0 0)
(3.671290987e-14 0 0)
(3.679622208e-14 0 0)
(3.715724161e-14 0 0)
(3.601864153e-14 0 0)
(3.737940748e-14 0 0)
(3.6074183e-14 0 0)
(3.771265628e-14 0 0)
(3.551876833e-14 0 0)
(3.712947088e-14 0 0)
(3.55743098e-14 0 0)
(3.724055381e-14 0 0)
(3.54909976e-14 0 0)
(3.704615868e-14 0 0)
(3.496335366e-14 0 0)
(3.724055381e-14 0 0)
(3.465787559e-14 0 0)
(3.762934408e-14 0 0)
(3.507443659e-14 0 0)
(3.737940748e-14 0 0)
(3.413023165e-14 0 0)
(3.735163675e-14 0 0)
(3.440793898e-14 0 0)
(3.707392941e-14 0 0)
(3.399137798e-14 0 0)
(3.707392941e-14 0 0)
(3.374144138e-14 0 0)
(3.685176354e-14 0 0)
(3.379698284e-14 0 0)
(3.729609528e-14 0 0)
(3.399137798e-14 0 0)
(3.732386601e-14 0 0)
(3.351927551e-14 0 0)
(3.654628547e-14 0 0)
(3.376921211e-14 0 0)
(3.629634887e-14 0 0)
(3.379698284e-14 0 0)
(3.618526593e-14 0 0)
(3.349150477e-14 0 0)
(3.568539273e-14 0 0)
(3.313048524e-14 0 0)
(3.596310007e-14 0 0)
(3.31860267e-14 0 0)
(3.554653906e-14 0 0)
(3.282500717e-14 0 0)
(3.501889512e-14 0 0)
(3.249175836e-14 0 0)
(3.460233412e-14 0 0)
(3.160309489e-14 0 0)
(3.474118779e-14 0 0)
(3.182526075e-14 0 0)
(3.465787558e-14 0 0)
(3.165863635e-14 0 0)
(3.474118779e-14 0 0)
(3.143647048e-14 0 0)
(3.482449999e-14 0 0)
(3.160309489e-14 0 0)
(3.476895852e-14 0 0)
(3.110322168e-14 0 0)
(3.446348045e-14 0 0)
(3.129761682e-14 0 0)
(3.382475358e-14 0 0)
(3.118653388e-14 0 0)
(3.393583651e-14 0 0)
(3.129761682e-14 0 0)
(3.388029504e-14 0 0)
(3.124207535e-14 0 0)
(3.315825597e-14 0 0)
(3.149201195e-14 0 0)
(3.290831937e-14 0 0)
(3.140869975e-14 0 0)
(3.30194023e-14 0 0)
(3.124207535e-14 0 0)
(3.290831937e-14 0 0)
(3.107545095e-14 0 0)
(3.279723643e-14 0 0)
(3.049226554e-14 0 0)
(3.274169496e-14 0 0)
(3.035341187e-14 0 0)
(3.238067543e-14 0 0)
(3.02145582e-14 0 0)
(3.26028413e-14 0 0)
(2.993685087e-14 0 0)
(3.32693389e-14 0 0)
(2.993685087e-14 0 0)
(3.30194023e-14 0 0)
(2.965914353e-14 0 0)
(3.27694657e-14 0 0)
(2.957583133e-14 0 0)
(3.221405102e-14 0 0)
(2.921481179e-14 0 0)
(3.193634369e-14 0 0)
(2.949251913e-14 0 0)
(3.160309488e-14 0 0)
(2.952028986e-14 0 0)
(3.135315828e-14 0 0)
(2.968691426e-14 0 0)
(3.168640709e-14 0 0)
(3.027009967e-14 0 0)
(3.179749002e-14 0 0)
(3.101990948e-14 0 0)
(3.235290469e-14 0 0)
(3.307494377e-14 0 0)
(3.404691945e-14 0 0)
(3.404691944e-14 0 0)
(3.504666586e-14 0 0)
(3.429685605e-14 0 0)
(3.560208053e-14 0 0)
(3.460233412e-14 0 0)
(3.501889512e-14 0 0)
(3.454679265e-14 0 0)
(3.443570972e-14 0 0)
(3.465787558e-14 0 0)
(3.474118779e-14 0 0)
(3.496335365e-14 0 0)
(3.526883173e-14 0 0)
(3.724055381e-14 0 0)
(3.701838795e-14 0 0)
(3.899011003e-14 0 0)
(3.746271968e-14 0 0)
(3.890679783e-14 0 0)
(3.771265629e-14 0 0)
(3.821252949e-14 0 0)
(3.790705142e-14 0 0)
(3.90456515e-14 0 0)
(3.935112957e-14 0 0)
(4.032310525e-14 0 0)
(4.112845652e-14 0 0)
(4.232259807e-14 0 0)
(4.21004322e-14 0 0)
(4.310017861e-14 0 0)
(4.221151514e-14 0 0)
(4.271138834e-14 0 0)
(4.229482734e-14 0 0)
(4.282247128e-14 0 0)
(4.21004322e-14 0 0)
(4.310017861e-14 0 0)
(4.143393459e-14 0 0)
(4.262807614e-14 0 0)
(4.140616386e-14 0 0)
(4.257253467e-14 0 0)
(4.157278826e-14 0 0)
(4.173941266e-14 0 0)
(4.179495413e-14 0 0)
(4.118399799e-14 0 0)
(4.17671834e-14 0 0)
(4.023979305e-14 0 0)
(4.190603707e-14 0 0)
(4.035087598e-14 0 0)
(4.17671834e-14 0 0)
(3.987877351e-14 0 0)
(4.173941266e-14 0 0)
(3.965660764e-14 0 0)
(4.157278826e-14 0 0)
(3.957329544e-14 0 0)
(4.129508093e-14 0 0)
(3.954552471e-14 0 0)
(4.090629065e-14 0 0)
(3.93789003e-14 0 0)
(4.057304185e-14 0 0)
(3.932335884e-14 0 0)
(4.054527112e-14 0 0)
(3.968437837e-14 0 0)
(4.048972965e-14 0 0)
(3.865686123e-14 0 0)
(3.993431498e-14 0 0)
(3.824030023e-14 0 0)
(3.979546131e-14 0 0)
(3.815698802e-14 0 0)
(4.001762718e-14 0 0)
(3.85457783e-14 0 0)
(3.998985644e-14 0 0)
(3.87124027e-14 0 0)
(4.021202231e-14 0 0)
(3.885125637e-14 0 0)
(3.968437837e-14 0 0)
(3.899011003e-14 0 0)
(3.957329544e-14 0 0)
(3.782373922e-14 0 0)
(3.826807096e-14 0 0)
(3.654628547e-14 0 0)
(3.6074183e-14 0 0)
(3.390806578e-14 0 0)
(3.465787558e-14 0 0)
(3.28527779e-14 0 0)
(3.443570972e-14 0 0)
(3.274169496e-14 0 0)
(3.390806578e-14 0 0)
(3.257507056e-14 0 0)
(3.418577311e-14 0 0)
(3.207519736e-14 0 0)
(3.360258771e-14 0 0)
(3.204742662e-14 0 0)
(3.304717303e-14 0 0)
(3.232513396e-14 0 0)
(3.296386083e-14 0 0)
(3.188080222e-14 0 0)
(3.31027145e-14 0 0)
(3.165863635e-14 0 0)
(3.34359633e-14 0 0)
(3.121430461e-14 0 0)
(3.324156817e-14 0 0)
(3.079774361e-14 0 0)
(3.31027145e-14 0 0)
(3.035341187e-14 0 0)
(3.243621689e-14 0 0)
(3.049226554e-14 0 0)
(3.282500716e-14 0 0)
(3.113099241e-14 0 0)
(3.324156817e-14 0 0)
(3.096436801e-14 0 0)
(3.31860267e-14 0 0)
(3.076997288e-14 0 0)
(3.271392423e-14 0 0)
(3.063111921e-14 0 0)
(3.33526511e-14 0 0)
(2.99646216e-14 0 0)
(3.307494377e-14 0 0)
(3.024232894e-14 0 0)
(3.329710964e-14 0 0)
(3.010347527e-14 0 0)
(3.290831937e-14 0 0)
(2.98813094e-14 0 0)
(3.263061203e-14 0 0)
(3.0131246e-14 0 0)
(3.221405102e-14 0 0)
(2.999239233e-14 0 0)
(3.190857295e-14 0 0)
(3.00479338e-14 0 0)
(3.118653388e-14 0 0)
(2.943697766e-14 0 0)
(3.174194855e-14 0 0)
(2.865939712e-14 0 0)
(3.146424122e-14 0 0)
(2.877048005e-14 0 0)
(3.068666067e-14 0 0)
(2.796512878e-14 0 0)
(2.952028986e-14 0 0)
(2.660436283e-14 0 0)
(2.671544576e-14 0 0)
(2.40216846e-14 0 0)
(2.541022128e-14 0 0)
(2.318856259e-14 0 0)
(2.466041147e-14 0 0)
(2.332741626e-14 0 0)
(2.532690908e-14 0 0)
(2.282754305e-14 0 0)
(2.502143101e-14 0 0)
(2.241098205e-14 0 0)
(2.446601634e-14 0 0)
(2.227212838e-14 0 0)
(2.41049968e-14 0 0)
(2.249429425e-14 0 0)
(2.388283093e-14 0 0)
(2.260537718e-14 0 0)
(2.416053827e-14 0 0)
(2.246652352e-14 0 0)
(2.374397726e-14 0 0)
(2.260537718e-14 0 0)
(2.382728946e-14 0 0)
(2.268868939e-14 0 0)
(2.299416746e-14 0 0)
(2.249429425e-14 0 0)
(2.304970892e-14 0 0)
(2.193887958e-14 0 0)
(2.349404066e-14 0 0)
(2.182779664e-14 0 0)
(2.346626993e-14 0 0)
(2.146677711e-14 0 0)
(2.285531379e-14 0 0)
(2.135569417e-14 0 0)
(2.293862599e-14 0 0)
(2.11335283e-14 0 0)
(2.293862599e-14 0 0)
(2.074473803e-14 0 0)
(2.288308452e-14 0 0)
(2.046703069e-14 0 0)
(2.302193819e-14 0 0)
(1.857862081e-14 0 0)
(2.174448444e-14 0 0)
(1.749556219e-14 0 0)
(1.927288915e-14 0 0)
(1.471848883e-14 0 0)
(1.752333293e-14 0 0)
(1.421861562e-14 0 0)
(1.777326953e-14 0 0)
(1.430192783e-14 0 0)
(1.752333293e-14 0 0)
(1.366320095e-14 0 0)
(1.749556219e-14 0 0)
(1.335772288e-14 0 0)
(1.705123046e-14 0 0)
(1.341326435e-14 0 0)
(1.696791825e-14 0 0)
(1.302447408e-14 0 0)
(1.671798165e-14 0 0)
(1.288562041e-14 0 0)
(1.666244018e-14 0 0)
(1.252460087e-14 0 0)
(1.655135725e-14 0 0)
(1.199695693e-14 0 0)
(1.591263038e-14 0 0)
(1.235797647e-14 0 0)
(1.569046451e-14 0 0)
(1.19691862e-14 0 0)
(1.571823524e-14 0 0)
(1.202472767e-14 0 0)
(1.569046451e-14 0 0)
(1.210803987e-14 0 0)
(1.480180103e-14 0 0)
(1.183033253e-14 0 0)
(1.416307416e-14 0 0)
(1.202472767e-14 0 0)
(1.446855223e-14 0 0)
(1.191364473e-14 0 0)
(1.405199122e-14 0 0)
(1.15526252e-14 0 0)
(1.357988875e-14 0 0)
(1.116383492e-14 0 0)
(1.382982535e-14 0 0)
(1.119160566e-14 0 0)
(1.344103508e-14 0 0)
(1.085835685e-14 0 0)
(1.302447408e-14 0 0)
(1.096943979e-14 0 0)
(1.227466427e-14 0 0)
(1.099721052e-14 0 0)
(1.235797647e-14 0 0)
(1.066396172e-14 0 0)
(1.216358134e-14 0 0)
(1.094166906e-14 0 0)
(1.19691862e-14 0 0)
(1.052510805e-14 0 0)
(1.22191228e-14 0 0)
(1.046956658e-14 0 0)
(1.216358134e-14 0 0)
(1.058064952e-14 0 0)
(1.152485446e-14 0 0)
(1.033071291e-14 0 0)
(1.149708373e-14 0 0)
(9.858610443e-15 0 0)
(1.066396172e-14 0 0)
(9.414278705e-15 0 0)
(1.074727392e-14 0 0)
(9.275425036e-15 0 0)
(1.035848365e-14 0 0)
(9.358737237e-15 0 0)
(1.046956658e-14 0 0)
(9.053259167e-15 0 0)
(1.024740071e-14 0 0)
(8.164595691e-15 0 0)
(8.581156695e-15 0 0)
(5.443063794e-15 0 0)
(5.470834527e-15 0 0)
(4.026756378e-15 0 0)
(4.582171051e-15 0 0)
(3.88790271e-15 0 0)
(4.721024719e-15 0 0)
(3.443570972e-15 0 0)
(4.471088116e-15 0 0)
(3.471341705e-15 0 0)
(4.248922247e-15 0 0)
(3.165863635e-15 0 0)
(4.304463714e-15 0 0)
(3.554653906e-15 0 0)
(3.998985644e-15 0 0)
(2.443824561e-15 0 0)
(3.193634369e-15 0 0)
(2.804844098e-15 0 0)
(3.110322168e-15 0 0)
(1.971722089e-15 0 0)
(3.221405102e-15 0 0)
(1.749556219e-15 0 0)
(2.471595294e-15 0 0)
(1.388536682e-15 0 0)
(2.44382456e-15 0 0)
(1.249683014e-15 0 0)
(1.749556219e-15 0 0)
(1.444078149e-15 0 0)
(1.499619617e-15 0 0)
(1.027517145e-15 0 0)
(1.721785486e-15 0 0)
(1.055287878e-15 0 0)
(1.277453748e-15 0 0)
(8.331220092e-16 0 0)
(1.582931818e-15 0 0)
(8.331220092e-16 0 0)
(8.608927429e-16 0 0)
(8.886634765e-16 0 0)
(7.498098083e-16 0 0)
(4.998732055e-16 0 0)
(4.721024719e-16 0 0)
(5.831854065e-16 0 0)
(5.831854065e-16 0 0)
(1.943951355e-16 0 0)
)
;

boundaryField
{
    sides
    {
        type            fixedValue;
        value           uniform (0 0 0);
    }
    empty
    {
        type            empty;
    }
}


// ************************************************************************* //
