/*--------------------------------*- C++ -*----------------------------------*\
| =========                 |                                                 |
| \\      /  F ield         | OpenFOAM: The Open Source CFD Toolbox           |
|  \\    /   O peration     | Version:  v1812                                 |
|   \\  /    A nd           | Web:      www.OpenFOAM.com                      |
|    \\/     M anipulation  |                                                 |
\*---------------------------------------------------------------------------*/
FoamFile
{
    version     2.0;
    format      ascii;
    class       volScalarField;
    location    "0.6";
    object      p;
}
// * * * * * * * * * * * * * * * * * * * * * * * * * * * * * * * * * * * * * //

dimensions      [1 -1 -2 0 0 0 0];


internalField   nonuniform List<scalar> 
20400
(
99805.8
99805.8
99805.9
99805.9
99805.4
99804.7
99803.5
99802.2
99800.8
99799.8
99799.2
99799.3
99799.2
99799.6
99799.5
99800.1
99799.8
99800.2
99799.8
99799
99797.6
99795.6
99793.3
99789.3
99785.2
99779.9
99775.3
99770.1
99765.8
99760.4
99755.6
99749
99743.7
99734.6
99724.8
99711.7
99697.9
99679.6
99660.3
99638.4
99617.2
99596.6
99578.6
99562.5
99551.6
99542.5
99540
99543.1
99551.7
99566.5
99588.2
99617.2
99648.4
99693.3
99734.9
99784.6
99834.1
99885.5
99936.6
99986.2
100034
100078
100118
100154
100185
100211
100233
100251
100264
100274
100280
100283
100285
100281
100278
100274
100269
100263
100256
100248
100238
100227
100214
100200
100184
100166
100145
100123
100100
100078
100056
100036
100019
100004
99994.4
99986.5
99984.8
99988
99997.1
100011
100030
100055
100081
100111
100141
100171
100199
100226
100250
100270
100288
100304
100314
100324
100327
100332
100335
100337
100337
100337
100336
100334
100331
100328
100324
100320
100316
100313
100309
100306
100303
100300
100297
100295
100293
100292
100291
100290
100289
100288
100287
100286
100284
100284
100280
100280
100280
100281
100282
100282
100282
100282
100280
100277
100273
100268
100262
100255
100248
100240
100232
100223
100215
100207
100199
100192
100185
100179
100174
100170
100167
100165
100164
100165
100168
100172
100177
100184
100192
100202
100213
100225
100239
100253
100267
100283
100299
100314
100331
100348
100364
100379
100392
100405
100417
100428
100439
100449
100458
100466
100475
100482
100489
100496
100502
100508
100513
100518
100523
100528
100532
100536
100540
100544
100548
100551
100555
100558
100561
100564
100568
100571
100574
100577
100580
100583
100587
100590
100593
100596
100599
100602
100606
100609
100612
100615
100619
100622
100625
100629
100632
100635
100639
100642
100645
100649
100652
100656
100659
100662
100666
100669
100672
100676
100679
100683
100686
100689
100692
100696
100699
100702
100706
100709
100712
100715
100718
100722
100725
100728
100731
100734
100738
100741
100744
100747
100750
100753
100756
100759
100763
100766
100769
100772
100775
100778
100781
100784
100787
100790
100793
100796
100799
100802
100805
100808
100811
100814
100817
100820
100823
100826
100829
100832
100834
100837
100840
100843
100846
100849
100852
100855
100858
100860
100863
100866
100869
100872
100875
100877
100880
100883
100886
100889
100891
100894
100897
100900
100903
100905
100908
100911
100914
100916
100919
100922
100924
100927
100930
100932
100935
100938
100941
100943
100946
100948
100951
100954
100956
100959
100962
100964
100967
100969
100972
100975
100977
100980
100982
100985
100987
100990
100992
100995
100998
101000
101003
101005
101008
101010
101013
101015
101018
101020
101022
101025
101027
101030
101032
101035
101037
101040
101042
101045
101047
101049
101052
101054
101057
101059
101061
101064
101066
101069
101071
101073
101076
101078
101081
101083
101085
101088
101090
101093
101095
101097
101100
101102
101104
101107
101109
101111
101114
101116
101118
101121
101123
101125
101128
101130
101133
101135
101137
101140
101142
101144
101146
101149
101151
101153
101156
101158
101160
101163
101165
101167
101170
101172
101174
101177
101179
101181
101183
101186
101188
101190
101193
101195
101197
101200
101202
101204
101206
101209
101211
101213
101215
101218
101220
101222
101224
101227
101229
101231
101233
101236
101238
101240
101243
101245
101247
101250
101252
101254
101257
101259
101261
101263
101265
101267
101270
101272
101274
101276
101279
101281
101284
101286
101289
101291
101294
101297
101301
101304
101308
101312
101314
101319
101319
101326
99805.6
99805.9
99805.8
99805.7
99805
99804.2
99802.9
99801.9
99800.5
99799.9
99799.4
99799.4
99799.3
99799.8
99800
99800.6
99800.5
99801
99800.6
99800.1
99798.7
99796.6
99793.1
99789.3
99785.3
99780.2
99776
99770
99766.6
99763.2
99759.4
99754.3
99747
99738.8
99728.3
99715.3
99699.6
99681.3
99660.8
99638.5
99616
99594.3
99574.2
99555.9
99541.7
99530.5
99528.4
99533.4
99544
99562.6
99586.9
99618.2
99655.3
99697.2
99740
99785.9
99833.5
99882.4
99931.4
99979.3
100025
100069
100108
100144
100176
100203
100225
100243
100257
100268
100275
100280
100280
100282
100280
100276
100271
100265
100257
100249
100240
100230
100217
100203
100185
100165
100145
100122
100099
100075
100051
100029
100009
99994.1
99983.7
99978.4
99978.5
99985.5
99997.6
100014
100031
100051
100072
100097
100123
100150
100177
100203
100227
100250
100270
100286
100301
100312
100325
100331
100336
100338
100338
100338
100335
100333
100330
100327
100323
100320
100316
100313
100309
100306
100303
100300
100298
100296
100294
100292
100291
100290
100289
100288
100287
100286
100285
100284
100287
100286
100286
100285
100284
100283
100281
100279
100275
100273
100269
100265
100259
100253
100246
100238
100230
100222
100213
100205
100196
100188
100181
100174
100168
100164
100161
100159
100159
100161
100165
100170
100176
100183
100194
100205
100218
100231
100246
100261
100277
100294
100308
100323
100339
100347
100358
100370
100383
100396
100408
100420
100431
100441
100451
100460
100468
100476
100484
100491
100498
100504
100510
100515
100521
100525
100530
100535
100539
100543
100547
100550
100554
100558
100561
100564
100568
100571
100574
100577
100580
100584
100587
100590
100593
100596
100599
100603
100606
100609
100612
100615
100619
100622
100625
100629
100632
100635
100639
100642
100645
100649
100652
100655
100659
100662
100666
100669
100672
100676
100679
100682
100686
100689
100692
100696
100699
100702
100705
100709
100712
100715
100718
100722
100725
100728
100731
100734
100737
100741
100744
100747
100750
100753
100756
100759
100762
100765
100769
100772
100775
100778
100781
100784
100787
100790
100793
100796
100799
100802
100805
100808
100811
100814
100817
100820
100823
100826
100829
100831
100834
100837
100840
100843
100846
100849
100852
100855
100857
100860
100863
100866
100869
100872
100875
100877
100880
100883
100886
100889
100891
100894
100897
100900
100902
100905
100908
100911
100913
100916
100919
100922
100924
100927
100930
100932
100935
100938
100940
100943
100946
100948
100951
100954
100956
100959
100961
100964
100967
100969
100972
100974
100977
100980
100982
100985
100987
100990
100992
100995
100997
101000
101002
101005
101007
101010
101012
101015
101017
101020
101022
101025
101027
101030
101032
101035
101037
101040
101042
101044
101047
101049
101052
101054
101057
101059
101061
101064
101066
101069
101071
101073
101076
101078
101081
101083
101085
101088
101090
101092
101095
101097
101100
101102
101104
101107
101109
101111
101114
101116
101118
101121
101123
101125
101128
101130
101132
101135
101137
101139
101142
101144
101146
101149
101151
101153
101156
101158
101160
101163
101165
101167
101170
101172
101174
101176
101179
101181
101183
101186
101188
101190
101193
101195
101197
101200
101202
101204
101206
101209
101211
101213
101215
101218
101220
101222
101225
101227
101229
101231
101234
101236
101238
101240
101243
101245
101247
101250
101252
101254
101257
101259
101261
101263
101265
101267
101269
101271
101274
101276
101278
101280
101283
101285
101287
101290
101292
101295
101297
101300
101302
101306
101308
101313
101313
101322
99806
99806.2
99805.9
99805.8
99804.8
99803.9
99802.5
99801.2
99800.1
99799
99798.6
99798.9
99799.1
99799.6
99799.8
99800.3
99800.4
99801.2
99800.9
99799.8
99797.9
99795.3
99791.7
99787
99782.3
99777.2
99773.6
99770.1
99766.5
99761.9
99757.8
99752.9
99747.8
99740
99730.4
99717.1
99700.8
99679.9
99655.8
99628.6
99599.5
99571.3
99547.1
99527.4
99517.3
99511.2
99510.3
99513
99521
99535.8
99556.6
99584.4
99617.1
99657.5
99702.8
99753.2
99806.3
99861
99915.3
99967.7
100017
100063
100105
100142
100174
100202
100225
100244
100259
100270
100277
100281
100283
100282
100279
100275
100270
100264
100258
100251
100241
100231
100219
100205
100188
100168
100145
100120
100095
100070
100048
100028
100011
99997.1
99985.7
99976.4
99971.6
99972.3
99977
99988.6
100008
100035
100065
100096
100128
100159
100189
100217
100242
100263
100282
100297
100309
100318
100325
100329
100332
100334
100335
100334
100333
100331
100328
100325
100322
100318
100315
100311
100308
100304
100302
100299
100297
100295
100293
100292
100290
100289
100288
100288
100286
100285
100284
100282
100279
100278
100279
100280
100281
100283
100284
100284
100285
100282
100279
100273
100267
100260
100252
100243
100234
100226
100217
100209
100201
100194
100187
100181
100177
100172
100169
100166
100165
100165
100166
100169
100174
100180
100188
100197
100208
100220
100233
100247
100261
100275
100293
100310
100324
100345
100363
100379
100393
100406
100418
100429
100440
100450
100459
100468
100476
100484
100491
100497
100503
100509
100514
100519
100524
100528
100533
100537
100541
100544
100548
100551
100555
100558
100561
100565
100568
100571
100574
100577
100580
100583
100586
100590
100593
100596
100599
100602
100606
100609
100612
100615
100619
100622
100625
100629
100632
100635
100639
100642
100645
100649
100652
100656
100659
100662
100666
100669
100673
100676
100679
100683
100686
100689
100692
100696
100699
100702
100706
100709
100712
100715
100719
100722
100725
100728
100731
100734
100738
100741
100744
100747
100750
100753
100756
100759
100763
100766
100769
100772
100775
100778
100781
100784
100787
100790
100793
100796
100799
100802
100805
100808
100811
100814
100817
100820
100823
100826
100829
100832
100834
100837
100840
100843
100846
100849
100852
100855
100858
100860
100863
100866
100869
100872
100875
100878
100880
100883
100886
100889
100892
100894
100897
100900
100903
100905
100908
100911
100914
100916
100919
100922
100924
100927
100930
100933
100935
100938
100941
100943
100946
100948
100951
100954
100956
100959
100962
100964
100967
100969
100972
100975
100977
100980
100982
100985
100987
100990
100992
100995
100998
101000
101003
101005
101008
101010
101013
101015
101018
101020
101022
101025
101027
101030
101032
101035
101037
101040
101042
101045
101047
101049
101052
101054
101057
101059
101062
101064
101066
101069
101071
101073
101076
101078
101081
101083
101085
101088
101090
101093
101095
101097
101100
101102
101104
101107
101109
101111
101114
101116
101118
101121
101123
101126
101128
101130
101133
101135
101137
101140
101142
101144
101146
101149
101151
101153
101156
101158
101160
101163
101165
101167
101170
101172
101174
101177
101179
101181
101183
101186
101188
101190
101192
101195
101197
101199
101202
101204
101206
101208
101211
101213
101215
101217
101220
101222
101224
101227
101229
101231
101233
101235
101238
101240
101242
101244
101247
101249
101251
101253
101255
101257
101260
101263
101265
101267
101270
101272
101274
101277
101279
101281
101284
101286
101289
101291
101294
101297
101300
101304
101307
101311
101313
101318
101318
101325
99806.1
99806.4
99806
99805.6
99804.1
99802.6
99800.6
99799.1
99798
99798.5
99798.5
99799.2
99799.8
99801.1
99801.6
99802.8
99802.5
99802.5
99801.6
99801.3
99799.1
99796.6
99792.7
99788.5
99783.7
99778.6
99773.6
99768.8
99765.5
99763.1
99760.8
99757.3
99751.7
99743.5
99731.3
99714.3
99692.1
99664.3
99632.2
99599.9
99571.3
99546.7
99525.4
99507.5
99492.8
99478.3
99476.2
99484.7
99497.4
99519.1
99544.3
99576.3
99612.6
99653.9
99699.3
99748.3
99800.2
99853.1
99906.5
99958.4
100008
100054
100097
100134
100167
100195
100219
100238
100253
100264
100273
100278
100281
100282
100281
100278
100273
100268
100260
100254
100246
100236
100223
100208
100189
100167
100142
100115
100087
100059
100031
100005
99981.3
99963.8
99950.9
99946.1
99948.5
99956
99968.1
99983.4
100002
100024
100049
100077
100107
100138
100169
100197
100224
100247
100267
100284
100298
100309
100318
100325
100329
100331
100332
100332
100330
100328
100325
100322
100319
100315
100312
100308
100305
100302
100299
100296
100293
100291
100289
100288
100287
100286
100285
100284
100284
100283
100283
100282
100282
100282
100282
100282
100283
100284
100284
100283
100281
100278
100274
100270
100264
100258
100250
100242
100233
100223
100214
100205
100196
100187
100179
100171
100165
100159
100156
100153
100152
100153
100156
100161
100168
100176
100186
100198
100210
100224
100239
100254
100270
100286
100301
100317
100331
100345
100359
100373
100386
100399
100412
100424
100435
100445
100455
100464
100472
100480
100487
100494
100500
100506
100512
100517
100522
100527
100532
100536
100540
100544
100547
100551
100555
100558
100561
100565
100568
100571
100574
100577
100580
100583
100587
100590
100593
100596
100599
100602
100606
100609
100612
100615
100619
100622
100625
100629
100632
100635
100639
100642
100645
100649
100652
100655
100659
100662
100666
100669
100672
100676
100679
100682
100686
100689
100692
100696
100699
100702
100705
100709
100712
100715
100718
100722
100725
100728
100731
100734
100737
100741
100744
100747
100750
100753
100756
100759
100762
100765
100769
100772
100775
100778
100781
100784
100787
100790
100793
100796
100799
100802
100805
100808
100811
100814
100817
100820
100823
100826
100829
100831
100834
100837
100840
100843
100846
100849
100852
100855
100858
100860
100863
100866
100869
100872
100875
100877
100880
100883
100886
100889
100891
100894
100897
100900
100902
100905
100908
100911
100913
100916
100919
100922
100924
100927
100930
100932
100935
100938
100940
100943
100946
100948
100951
100954
100956
100959
100962
100964
100967
100969
100972
100974
100977
100980
100982
100985
100987
100990
100992
100995
100997
101000
101002
101005
101007
101010
101012
101015
101017
101020
101022
101025
101027
101030
101032
101035
101037
101040
101042
101044
101047
101049
101052
101054
101057
101059
101061
101064
101066
101069
101071
101073
101076
101078
101081
101083
101085
101088
101090
101092
101095
101097
101100
101102
101104
101107
101109
101111
101114
101116
101118
101121
101123
101125
101128
101130
101132
101135
101137
101139
101142
101144
101146
101149
101151
101153
101156
101158
101160
101163
101165
101167
101170
101172
101174
101176
101179
101181
101183
101186
101188
101190
101192
101195
101197
101199
101202
101204
101206
101208
101211
101213
101215
101217
101220
101222
101224
101227
101229
101231
101233
101236
101238
101240
101242
101244
101247
101249
101251
101253
101255
101257
101260
101262
101265
101267
101269
101271
101274
101276
101278
101280
101283
101285
101287
101290
101292
101294
101296
101299
101302
101306
101309
101314
101316
101322
99806.6
99807
99806.2
99805.6
99803.2
99801.5
99799.1
99797.6
99796.4
99795.2
99795.4
99796.5
99797.8
99799.5
99800.8
99801.9
99802.9
99803.7
99803.8
99802.4
99800.3
99797.4
99793
99787.7
99782
99776.6
99771.9
99768.3
99765.6
99763
99760.3
99756.4
99750
99739.6
99723.7
99700.7
99671
99638.5
99605.1
99570.9
99537.3
99504.6
99475.6
99454.5
99441.7
99436.7
99437.2
99443.9
99456.1
99475.1
99500
99531
99568.2
99611.4
99660.3
99713.3
99769.5
99827.1
99884.6
99940.5
99993.4
100043
100087
100127
100161
100191
100216
100236
100252
100264
100272
100278
100281
100282
100282
100279
100275
100270
100263
100257
100248
100239
100225
100209
100188
100163
100135
100104
100074
100045
100018
99994.2
99973.2
99956
99943.1
99933.9
99931.8
99936.2
99945.3
99961
99982.5
100009
100039
100070
100103
100135
100166
100195
100222
100245
100265
100281
100295
100305
100313
100319
100323
100325
100326
100326
100325
100323
100321
100318
100314
100311
100307
100304
100300
100297
100294
100291
100288
100286
100284
100283
100281
100281
100280
100279
100279
100278
100278
100278
100277
100278
100279
100281
100283
100285
100286
100287
100287
100285
100281
100276
100269
100261
100252
100242
100232
100223
100213
100204
100195
100186
100178
100171
100165
100160
100156
100153
100151
100151
100153
100157
100162
100169
100178
100188
100201
100214
100229
100245
100261
100278
100295
100312
100329
100346
100362
100377
100391
100404
100416
100428
100439
100449
100458
100467
100475
100483
100490
100497
100503
100509
100514
100519
100524
100528
100533
100537
100541
100544
100548
100552
100555
100558
100561
100565
100568
100571
100574
100577
100580
100583
100586
100590
100593
100596
100599
100602
100605
100609
100612
100615
100619
100622
100625
100628
100632
100635
100639
100642
100645
100649
100652
100656
100659
100662
100666
100669
100672
100676
100679
100682
100686
100689
100692
100696
100699
100702
100706
100709
100712
100715
100718
100722
100725
100728
100731
100734
100738
100741
100744
100747
100750
100753
100756
100759
100762
100766
100769
100772
100775
100778
100781
100784
100787
100790
100793
100796
100799
100802
100805
100808
100811
100814
100817
100820
100823
100826
100829
100832
100834
100837
100840
100843
100846
100849
100852
100855
100858
100860
100863
100866
100869
100872
100875
100877
100880
100883
100886
100889
100891
100894
100897
100900
100903
100905
100908
100911
100914
100916
100919
100922
100924
100927
100930
100932
100935
100938
100940
100943
100946
100948
100951
100954
100956
100959
100962
100964
100967
100969
100972
100975
100977
100980
100982
100985
100987
100990
100992
100995
100997
101000
101003
101005
101008
101010
101013
101015
101018
101020
101022
101025
101027
101030
101032
101035
101037
101040
101042
101045
101047
101049
101052
101054
101057
101059
101061
101064
101066
101069
101071
101073
101076
101078
101081
101083
101085
101088
101090
101093
101095
101097
101100
101102
101104
101107
101109
101111
101114
101116
101118
101121
101123
101125
101128
101130
101132
101135
101137
101139
101142
101144
101146
101149
101151
101153
101156
101158
101160
101163
101165
101167
101170
101172
101174
101177
101179
101181
101183
101186
101188
101190
101193
101195
101197
101199
101202
101204
101206
101208
101211
101213
101215
101218
101220
101222
101224
101227
101229
101231
101233
101236
101238
101240
101242
101245
101247
101249
101251
101253
101256
101258
101260
101262
101265
101267
101269
101272
101274
101276
101279
101281
101283
101286
101288
101291
101293
101296
101299
101302
101305
101309
101312
101316
101319
101323
99807.4
99807.7
99806.5
99805.3
99802.3
99799.8
99796.9
99794.8
99793.2
99793.3
99794.1
99795.9
99797.6
99800.1
99802
99804.1
99805.1
99805.8
99805.5
99804.7
99802.5
99799.7
99795
99790.3
99784.6
99779.4
99774.7
99770.8
99767.7
99765.3
99762.3
99757.3
99748.8
99732.9
99709.8
99680.7
99646.8
99608.8
99568.7
99529
99493.6
99463.6
99438.9
99420.3
99406.6
99401.7
99406.2
99416
99432.7
99454.7
99482.1
99514.3
99552.1
99594.4
99642.3
99694.3
99750.3
99808.3
99867
99924.3
99979.1
100030
100076
100117
100153
100183
100209
100230
100247
100261
100271
100279
100283
100285
100284
100282
100279
100275
100270
100263
100254
100243
100228
100208
100184
100156
100126
100092
100059
100026
99994.6
99967.2
99944.5
99928.1
99917.3
99912.3
99913.6
99920.1
99931.6
99947.6
99967.9
99992.2
100020
100051
100084
100117
100149
100180
100207
100232
100252
100270
100284
100296
100305
100311
100316
100318
100320
100320
100319
100317
100315
100312
100309
100305
100302
100298
100294
100291
100287
100284
100281
100279
100277
100275
100273
100272
100271
100271
100271
100271
100271
100272
100273
100275
100277
100279
100282
100284
100286
100287
100286
100284
100280
100274
100267
100258
100249
100239
100228
100218
100208
100198
100188
100178
100170
100162
100155
100149
100145
100142
100141
100142
100145
100149
100155
100164
100174
100185
100198
100212
100228
100244
100260
100277
100294
100311
100327
100343
100359
100374
100388
100401
100414
100426
100437
100447
100457
100466
100474
100482
100489
100496
100502
100508
100513
100519
100523
100528
100532
100537
100541
100544
100548
100551
100555
100558
100561
100565
100568
100571
100574
100577
100580
100583
100586
100590
100593
100596
100599
100602
100605
100609
100612
100615
100618
100622
100625
100628
100632
100635
100639
100642
100645
100649
100652
100655
100659
100662
100666
100669
100672
100676
100679
100682
100686
100689
100692
100696
100699
100702
100705
100709
100712
100715
100718
100722
100725
100728
100731
100734
100737
100741
100744
100747
100750
100753
100756
100759
100762
100765
100769
100772
100775
100778
100781
100784
100787
100790
100793
100796
100799
100802
100805
100808
100811
100814
100817
100820
100823
100826
100829
100831
100834
100837
100840
100843
100846
100849
100852
100855
100858
100860
100863
100866
100869
100872
100875
100877
100880
100883
100886
100889
100891
100894
100897
100900
100903
100905
100908
100911
100913
100916
100919
100922
100924
100927
100930
100932
100935
100938
100940
100943
100946
100948
100951
100954
100956
100959
100962
100964
100967
100969
100972
100974
100977
100980
100982
100985
100987
100990
100992
100995
100997
101000
101002
101005
101007
101010
101012
101015
101017
101020
101022
101025
101027
101030
101032
101035
101037
101040
101042
101044
101047
101049
101052
101054
101057
101059
101061
101064
101066
101069
101071
101073
101076
101078
101081
101083
101085
101088
101090
101092
101095
101097
101100
101102
101104
101107
101109
101111
101114
101116
101118
101121
101123
101125
101128
101130
101132
101135
101137
101139
101142
101144
101146
101149
101151
101153
101156
101158
101160
101163
101165
101167
101170
101172
101174
101176
101179
101181
101183
101186
101188
101190
101193
101195
101197
101199
101202
101204
101206
101208
101211
101213
101215
101217
101220
101222
101224
101227
101229
101231
101233
101236
101238
101240
101242
101244
101247
101249
101251
101253
101256
101258
101260
101262
101265
101267
101269
101272
101274
101276
101278
101281
101283
101285
101288
101290
101292
101295
101298
101301
101304
101307
101311
101315
101319
101322
99808.9
99809
99807.2
99806
99801.6
99799
99795.2
99793
99791.1
99790.7
99791.5
99793.3
99795.6
99798.8
99801.4
99804
99805.6
99806.8
99807.2
99806.4
99804.5
99801.3
99797.4
99792.5
99787.3
99782.4
99778.1
99774.9
99772.5
99769.9
99765.8
99757.7
99744.1
99724.5
99697.2
99661.6
99621.3
99577.9
99533.8
99490.8
99451.1
99416.3
99389.8
99372.4
99361.9
99360.4
99366
99376.6
99393.2
99414.8
99441.9
99473.8
99511.9
99555.4
99605.1
99659.7
99719
99780.8
99843.4
99904.5
99962.8
100017
100066
100109
100147
100179
100205
100227
100245
100259
100269
100277
100283
100286
100288
100287
100285
100281
100275
100268
100259
100246
100229
100207
100180
100149
100116
100080
100046
100013
99982.8
99956.6
99934.4
99917.6
99905.8
99898.9
99898.7
99904.5
99915.5
99932.2
99954.2
99980.7
100011
100043
100077
100111
100144
100174
100201
100225
100245
100262
100276
100287
100296
100302
100306
100309
100311
100311
100311
100309
100307
100305
100302
100298
100295
100291
100287
100283
100280
100276
100273
100270
100268
100266
100264
100262
100261
100261
100261
100261
100262
100263
100264
100267
100270
100273
100277
100280
100283
100285
100286
100284
100280
100274
100267
100258
100248
100237
100227
100216
100206
100195
100186
100176
100168
100160
100153
100147
100142
100138
100136
100136
100138
100141
100147
100154
100164
100176
100189
100204
100220
100237
100255
100273
100291
100309
100327
100344
100360
100375
100390
100403
100416
100428
100439
100449
100458
100467
100475
100483
100490
100497
100503
100508
100514
100519
100524
100528
100532
100537
100541
100544
100548
100551
100555
100558
100561
100565
100568
100571
100574
100577
100580
100583
100586
100589
100593
100596
100599
100602
100605
100609
100612
100615
100618
100622
100625
100628
100632
100635
100639
100642
100645
100649
100652
100655
100659
100662
100666
100669
100672
100676
100679
100682
100686
100689
100692
100696
100699
100702
100705
100709
100712
100715
100718
100722
100725
100728
100731
100734
100737
100741
100744
100747
100750
100753
100756
100759
100762
100766
100769
100772
100775
100778
100781
100784
100787
100790
100793
100796
100799
100802
100805
100808
100811
100814
100817
100820
100823
100826
100829
100831
100834
100837
100840
100843
100846
100849
100852
100855
100858
100860
100863
100866
100869
100872
100875
100877
100880
100883
100886
100889
100891
100894
100897
100900
100903
100905
100908
100911
100913
100916
100919
100922
100924
100927
100930
100932
100935
100938
100940
100943
100946
100948
100951
100954
100956
100959
100962
100964
100967
100969
100972
100975
100977
100980
100982
100985
100987
100990
100992
100995
100997
101000
101003
101005
101008
101010
101013
101015
101017
101020
101022
101025
101027
101030
101032
101035
101037
101040
101042
101045
101047
101049
101052
101054
101057
101059
101061
101064
101066
101069
101071
101073
101076
101078
101081
101083
101085
101088
101090
101093
101095
101097
101100
101102
101104
101107
101109
101111
101114
101116
101118
101121
101123
101125
101128
101130
101132
101135
101137
101139
101142
101144
101146
101149
101151
101153
101156
101158
101160
101163
101165
101167
101170
101172
101174
101176
101179
101181
101183
101186
101188
101190
101193
101195
101197
101199
101202
101204
101206
101208
101211
101213
101215
101218
101220
101222
101224
101227
101229
101231
101233
101236
101238
101240
101242
101245
101247
101249
101251
101254
101256
101258
101260
101263
101265
101267
101269
101272
101274
101276
101279
101281
101283
101286
101288
101291
101293
101296
101299
101302
101305
101309
101312
101316
101320
101322
99811.1
99810.8
99808.8
99806.6
99801.7
99798.1
99793.8
99791.2
99789
99788.8
99789.8
99792
99794.5
99798.1
99801
99804
99806.1
99807.8
99808.3
99808.4
99807.3
99805.3
99802.4
99799.1
99795.5
99792.1
99789.3
99786.8
99784.1
99779.8
99773.7
99763.5
99745.4
99719
99684.1
99642
99596.2
99546.7
99497.4
99451.1
99411.1
99377.7
99353.6
99337.4
99329
99330.1
99337.9
99351.7
99370.8
99394.2
99422.1
99453.6
99490.2
99531.6
99579.2
99632.6
99691.8
99754.9
99819.9
99884
99945.1
100002
100053
100099
100138
100172
100200
100223
100242
100256
100268
100277
100283
100288
100290
100291
100289
100286
100281
100274
100263
100249
100230
100205
100176
100142
100106
100069
100032
99996.4
99965.3
99938.7
99917
99901.5
99890.9
99885.8
99887
99893.4
99905.1
99921.8
99943.2
99968.9
99998.2
100030
100064
100097
100130
100161
100189
100213
100234
100251
100265
100277
100286
100292
100297
100300
100302
100303
100302
100301
100299
100297
100294
100290
100287
100283
100279
100275
100271
100267
100264
100260
100257
100255
100252
100251
100249
100248
100248
100249
100250
100252
100254
100257
100261
100265
100269
100274
100277
100280
100280
100279
100275
100269
100262
100252
100242
100232
100221
100210
100199
100188
100178
100168
100159
100150
100143
100136
100131
100128
100125
100126
100128
100132
100138
100147
100157
100170
100184
100199
100216
100233
100252
100270
100288
100307
100324
100341
100358
100373
100388
100402
100415
100427
100438
100448
100458
100467
100475
100482
100490
100496
100502
100508
100513
100519
100523
100528
100532
100536
100540
100544
100548
100551
100555
100558
100561
100564
100568
100571
100574
100577
100580
100583
100586
100589
100593
100596
100599
100602
100605
100609
100612
100615
100618
100622
100625
100628
100632
100635
100638
100642
100645
100649
100652
100655
100659
100662
100666
100669
100672
100676
100679
100682
100686
100689
100692
100696
100699
100702
100705
100709
100712
100715
100718
100722
100725
100728
100731
100734
100737
100741
100744
100747
100750
100753
100756
100759
100762
100765
100769
100772
100775
100778
100781
100784
100787
100790
100793
100796
100799
100802
100805
100808
100811
100814
100817
100820
100823
100826
100829
100831
100834
100837
100840
100843
100846
100849
100852
100855
100858
100860
100863
100866
100869
100872
100875
100877
100880
100883
100886
100889
100891
100894
100897
100900
100903
100905
100908
100911
100913
100916
100919
100922
100924
100927
100930
100932
100935
100938
100940
100943
100946
100948
100951
100954
100956
100959
100962
100964
100967
100969
100972
100974
100977
100980
100982
100985
100987
100990
100992
100995
100997
101000
101002
101005
101008
101010
101012
101015
101017
101020
101022
101025
101027
101030
101032
101035
101037
101040
101042
101044
101047
101049
101052
101054
101057
101059
101061
101064
101066
101069
101071
101073
101076
101078
101081
101083
101085
101088
101090
101092
101095
101097
101100
101102
101104
101107
101109
101111
101114
101116
101118
101121
101123
101125
101128
101130
101132
101135
101137
101139
101142
101144
101146
101149
101151
101153
101156
101158
101160
101163
101165
101167
101170
101172
101174
101176
101179
101181
101183
101186
101188
101190
101193
101195
101197
101199
101202
101204
101206
101208
101211
101213
101215
101218
101220
101222
101224
101227
101229
101231
101233
101236
101238
101240
101242
101245
101247
101249
101251
101254
101256
101258
101260
101263
101265
101267
101270
101272
101274
101277
101279
101281
101284
101286
101288
101291
101294
101296
101299
101302
101305
101309
101312
101316
101320
101322
99814.4
99813.4
99811.3
99808.1
99803.4
99798.8
99794.1
99790.9
99788.6
99787.9
99788.5
99790.3
99792.5
99796.1
99799.1
99802.3
99804.8
99807.1
99808.5
99809.2
99809.3
99808.5
99807.5
99806.1
99804.8
99803.6
99802.2
99801.1
99799.7
99796.9
99788.3
99772.2
99748
99716
99676.2
99626.8
99575.1
99520
99467
99417.7
99375.8
99341.3
99317.6
99301.6
99294.4
99296.9
99305.6
99320.4
99340.1
99363.8
99391.4
99422.4
99458
99498.7
99546
99600
99660.9
99726.5
99794.8
99862.5
99927.1
99987.1
100041
100089
100130
100165
100195
100218
100238
100253
100266
100275
100283
100288
100291
100293
100293
100290
100285
100277
100266
100250
100230
100203
100172
100137
100100
100061
100024
99989.4
99958.8
99932.7