/*--------------------------------*- C++ -*----------------------------------*\
| =========                 |                                                 |
| \\      /  F ield         | OpenFOAM: The Open Source CFD Toolbox           |
|  \\    /   O peration     | Version:  v1812                                 |
|   \\  /    A nd           | Web:      www.OpenFOAM.com                      |
|    \\/     M anipulation  |                                                 |
\*---------------------------------------------------------------------------*/
FoamFile
{
    version     2.0;
    format      ascii;
    class       surfaceScalarField;
    location    "0.6";
    object      phi;
}
// * * * * * * * * * * * * * * * * * * * * * * * * * * * * * * * * * * * * * //

dimensions      [1 0 -1 0 0 0 0];
oriented        oriented;


internalField   nonuniform List<scalar> 
40240
(
-0.000327419
-1.23421e-05
-0.000392495
-0.000274558
-0.000300532
-0.000431459
3.81356e-05
-0.000677883
0.000515322
-0.000815859
0.000962757
-0.00078566
0.00123159
-0.00060628
0.00123617
-0.000341331
0.000943807
-4.34651e-05
0.000425103
0.000183624
-0.000206693
0.000297865
-0.000883812
0.000344446
-0.00153606
0.000320639
-0.00210799
0.000241737
-0.00252729
9.08294e-05
-0.00278388
-7.04904e-05
-0.00284899
-0.000261032
-0.00274608
-0.00042798
-0.00237
-0.000699829
-0.00180156
-0.000890353
-0.00107322
-0.00104858
-0.000263521
-0.00112874
0.000618957
-0.00120011
0.00143242
-0.00112929
0.00202071
-0.000902348
0.00228873
-0.000580193
0.00229577
-0.000317203
0.00218316
-0.000195647
0.00201147
-0.00013461
0.00180339
-9.62414e-05
0.00152337
-2.23432e-05
0.00133641
-0.000113167
0.00141359
-0.000375504
0.00137051
-0.000253146
0.00102637
5.03953e-05
0.000417671
0.00031713
-0.000656227
0.000785193
-0.00227336
0.00133152
-0.00472706
0.00217124
-0.00811834
0.00311221
-0.0124697
0.00407554
-0.0175414
0.00479936
-0.0230366
0.0052255
-0.0286705
0.00536742
-0.0341063
0.0051718
-0.0391482
0.00478016
-0.0436168
0.00420976
-0.0474925
0.00361973
-0.0506737
0.0029273
-0.0531061
0.00218098
-0.0547512
0.00139619
-0.0557804
0.000782059
-0.0561236
9.78299e-05
-0.0558583
-0.000508548
-0.0546944
-0.00140666
-0.0531014
-0.00183419
-0.0509112
-0.00243034
-0.0483876
-0.00276243
-0.045434
-0.00319135
-0.0422205
-0.0034502
-0.0387809
-0.00367503
-0.0352205
-0.00379456
-0.0316128
-0.00384038
-0.0280254
-0.00381842
-0.0245166
-0.00373814
-0.0211407
-0.00360314
-0.0179311
-0.00343478
-0.0149384
-0.00321525
-0.0121643
-0.00299434
-0.0096734
-0.00270746
-0.00744924
-0.00243827
-0.00555552
-0.00210496
-0.00404942
-0.0017131
-0.00302222
-0.00123087
-0.00208177
-0.00114096
-0.00129877
-0.000979664
-0.000699453
-0.00079261
-0.000185728
-0.000703971
0.000205251
-0.000578868
0.000606803
-0.000587824
0.000815696
-0.000393595
0.000997349
-0.00036449
0.00100911
-0.000192721
0.000774486
5.5962e-05
0.000266252
0.000331802
-0.000699906
0.000790802
-0.00222568
0.00135256
-0.00436351
0.00196702
-0.00704993
0.00251815
-0.0102004
0.00298509
-0.0136572
0.00329453
-0.0172761
0.0034598
-0.0209023
0.00346977
-0.0244339
0.00337862
-0.0277748
0.00318989
-0.0307753
0.00285249
-0.0333254
0.00240478
-0.0354027
0.00193468
-0.0367742
0.00123129
-0.0375098
0.000598145
-0.0376237
-2.11312e-05
-0.0370861
-0.000670795
-0.0359271
-0.00128953
-0.0341702
-0.00188567
-0.0320563
-0.00224078
-0.0296106
-0.0025713
-0.0269515
-0.00278315
-0.0241524
-0.00292185
-0.0213082
-0.00296527
-0.0184672
-0.00296142
-0.0157133
-0.00287262
-0.0130393
-0.00279236
-0.0105748
-0.00258203
-0.00843655
-0.00225489
-0.00687829
-0.00167387
-0.00519081
-0.00180254
-0.00355386
-0.00175128
-0.0020621
-0.00160534
-0.00076148
-0.00141372
0.000336825
-0.00121047
0.00131502
-0.0010892
0.00212144
-0.000916576
0.00274826
-0.000735844
0.00319805
-0.000557474
0.00348029
-0.000388523
0.00361173
-0.000236103
0.0036184
-0.00010959
0.00353148
-1.41555e-05
0.00330265
0.00012962
0.00297842
0.000226999
0.00255277
0.000330492
0.00203348
0.000426275
0.00142671
0.000515939
0.000737661
0.000600296
-6.1173e-06
0.000657219
-0.000789421
0.000698652
-0.00160794
0.000735794
-0.00243594
0.000747095
-0.00324867
0.000733608
-0.00403484
0.000708695
-0.00475387
0.000643091
-0.00539121
0.00056248
-0.00580906
0.000344563
-0.00611329
0.000232995
-0.00684552
0.000661759
-0.00736836
0.000453502
-0.00756077
0.000123649
-0.00754421
-8.43126e-05
-0.00728674
-0.000324705
-0.00694201
-0.000411081
-0.00656534
-0.000442387
-0.00621083
-0.000419485
-0.00592423
-0.000351071
-0.00565749
-0.000330319
-0.00553076
-0.000189659
-0.00552516
-6.79662e-05
-0.00569383
0.000106955
-0.00601236
0.000257369
-0.00648248
0.000409668
-0.00708362
0.000541207
-0.00780391
0.00066105
-0.00862274
0.000760228
-0.00952453
0.000843887
-0.0104903
0.000908644
-0.0115035
0.000956822
-0.0125485
0.000989305
-0.0136122
0.00100887
-0.0146851
0.00101888
-0.0157637
0.0010253
-0.0168373
0.00102123
-0.0178949
0.00100599
-0.0189185
0.000972822
-0.0198901
0.000921745
-0.0208006
0.000861401
-0.0216344
0.000785693
-0.0223742
0.000692414
-0.0229975
0.000576654
-0.0235299
0.000486667
-0.0239399
0.000364838
-0.0242459
0.000261652
-0.024414
0.000124118
-0.0244573
-1.23655e-08
-0.0243833
-0.00011708
-0.0241895
-0.00023595
-0.0238804
-0.000350773
-0.0234411
-0.000479479
-0.022909
-0.000571906
-0.0223015
-0.000645118
-0.0215525
-0.00078396
-0.0207949
-0.000792838
-0.020059
-0.000773005
-0.019344
-0.000753012
-0.0186395
-0.000742875
-0.0179488
-0.000728873
-0.0172779
-0.000708623
-0.0166327
-0.00068238
-0.016018
-0.000651361
-0.0154373
-0.000616873
-0.014893
-0.000580006
-0.0143863
-0.000541802
-0.0139178
-0.000503095
-0.0134873
-0.00046456
-0.0130941
-0.000426799
-0.012737
-0.000390163
-0.0124146
-0.000354992
-0.0121251
-0.000321512
-0.0118669
-0.000289881
-0.0116378
-0.000260156
-0.011436
-0.000232429
-0.0112595
-0.000206711
-0.0111063
-0.000182969
-0.0109745
-0.000161078
-0.0108623
-0.000141104
-0.0107679
-0.000122902
-0.0106895
-0.000106463
-0.0106257
-9.1506e-05
-0.0105747
-7.8239e-05
-0.0105349
-6.68168e-05
-0.0105055
-5.59471e-05
-0.0104853
-4.63913e-05
-0.0104726
-3.85907e-05
-0.0104652
-3.29157e-05
-0.0104632
-2.71813e-05
-0.0104652
-2.28572e-05
-0.0104702
-1.94663e-05
-0.010478
-1.64898e-05
-0.0104875
-1.43301e-05
-0.0104983
-1.2788e-05
-0.0105098
-1.18794e-05
-0.0105213
-1.14563e-05
-0.0105326
-1.14837e-05
-0.0105431
-1.18773e-05
-0.0105527
-1.26151e-05
-0.010561
-1.36062e-05
-0.0105679
-1.4705e-05
-0.0105734
-1.59207e-05
-0.010577
-1.74764e-05
-0.0105789
-1.90221e-05
-0.0105793
-2.02953e-05
-0.0105783
-2.13849e-05
-0.0105755
-2.29696e-05
-0.0105709
-2.45583e-05
-0.0105647
-2.58484e-05
-0.0105572
-2.70605e-05
-0.0105483
-2.81603e-05
-0.0105382
-2.91627e-05
-0.010527
-3.0032e-05
-0.0105149
-3.08224e-05
-0.0105019
-3.14492e-05
-0.0104882
-3.19778e-05
-0.0104739
-3.23954e-05
-0.0104591
-3.27257e-05
-0.0104438
-3.29232e-05
-0.0104283
-3.30467e-05
-0.0104126
-3.30755e-05
-0.0103968
-3.30342e-05
-0.0103809
-3.29253e-05
-0.010365
-3.27598e-05
-0.0103491
-3.25471e-05
-0.0103333
-3.22945e-05
-0.0103177
-3.20107e-05
-0.0103022
-3.17028e-05
-0.010287
-3.13777e-05
-0.0102718
-3.10423e-05
-0.0102569
-3.07009e-05
-0.0102422
-3.03584e-05
-0.0102277
-3.00182e-05
-0.0102135
-2.9684e-05
-0.0101994
-2.93578e-05
-0.0101854
-2.90409e-05
-0.0101717
-2.87347e-05
-0.0101582
-2.84399e-05
-0.0101448
-2.81566e-05
-0.0101315
-2.78841e-05
-0.0101184
-2.76219e-05
-0.0101055
-2.73698e-05
-0.0100927
-2.71263e-05
-0.01008
-2.68908e-05
-0.0100674
-2.66629e-05
-0.0100549
-2.64419e-05
-0.0100426
-2.62267e-05
-0.0100304
-2.60162e-05
-0.0100182
-2.58102e-05
-0.0100062
-2.56085e-05
-0.0099943
-2.54109e-05
-0.00998248
-2.5217e-05
-0.00997076
-2.50265e-05
-0.00995914
-2.48393e-05
-0.00994761
-2.46548e-05
-0.00993618
-2.44726e-05
-0.00992484
-2.42926e-05
-0.00991359
-2.41144e-05
-0.00990243
-2.39374e-05
-0.00989137
-2.3762e-05
-0.0098804
-2.35885e-05
-0.00986952
-2.34163e-05
-0.00985873
-2.3245e-05
-0.00984803
-2.30749e-05
-0.00983742
-2.29063e-05
-0.0098269
-2.27394e-05
-0.00981647
-2.25746e-05
-0.00980612
-2.24129e-05
-0.00979586
-2.2254e-05
-0.00978567
-2.2097e-05
-0.00977557
-2.1942e-05
-0.00976554
-2.17887e-05
-0.00975559
-2.16362e-05
-0.00974572
-2.14842e-05
-0.00973592
-2.13331e-05
-0.00972621
-2.11822e-05
-0.00971657
-2.10311e-05
-0.009707
-2.08807e-05
-0.00969752
-2.07317e-05
-0.0096881
-2.0584e-05
-0.00967876
-2.04378e-05
-0.00966949
-2.02934e-05
-0.00966029
-2.01502e-05
-0.00965116
-2.00076e-05
-0.0096421
-1.98659e-05
-0.00963311
-1.97244e-05
-0.00962418
-1.95832e-05
-0.00961533
-1.94432e-05
-0.00960653
-1.93045e-05
-0.0095978
-1.91668e-05
-0.00958914
-1.903e-05
-0.00958053
-1.88942e-05
-0.00957199
-1.87591e-05
-0.00956351
-1.86249e-05
-0.00955508
-1.84916e-05
-0.00954672
-1.8359e-05
-0.00953841
-1.82271e-05
-0.00953016
-1.80963e-05
-0.00952196
-1.79665e-05
-0.00951382
-1.78376e-05
-0.00950573
-1.77099e-05
-0.00949769
-1.75826e-05
-0.00948971
-1.74553e-05
-0.00948177
-1.73282e-05
-0.00947389
-1.72009e-05
-0.00946606
-1.70742e-05
-0.00945828
-1.69486e-05
-0.00945054
-1.68242e-05
-0.00944286
-1.67009e-05
-0.00943521
-1.65786e-05
-0.00942762
-1.64564e-05
-0.00942007
-1.63343e-05
-0.00941257
-1.62127e-05
-0.00940511
-1.60913e-05
-0.00939769
-1.59708e-05
-0.00939032
-1.5851e-05
-0.00938299
-1.57319e-05
-0.0093757
-1.56131e-05
-0.00936845
-1.54944e-05
-0.00936125
-1.53759e-05
-0.00935408
-1.52579e-05
-0.00934696
-1.51404e-05
-0.00933988
-1.50235e-05
-0.00933283
-1.49069e-05
-0.00932583
-1.47908e-05
-0.00931887
-1.46752e-05
-0.00931194
-1.45602e-05
-0.00930506
-1.44455e-05
-0.00929821
-1.43311e-05
-0.0092914
-1.42167e-05
-0.00928463
-1.41029e-05
-0.00927789
-1.39896e-05
-0.0092712
-1.38767e-05
-0.00926454
-1.37641e-05
-0.00925792
-1.36516e-05
-0.00925134
-1.35395e-05
-0.0092448
-1.34277e-05
-0.00923829
-1.3316e-05
-0.00923182
-1.32044e-05
-0.00922539
-1.30932e-05
-0.009219
-1.29823e-05
-0.00921265
-1.28721e-05
-0.00920634
-1.27625e-05
-0.00920006
-1.26538e-05
-0.00919382
-1.25459e-05
-0.00918761
-1.24382e-05
-0.00918144
-1.23303e-05
-0.00917532
-1.22217e-05
-0.00916923
-1.21126e-05
-0.00916318
-1.20037e-05
-0.00915717
-1.18955e-05
-0.0091512
-1.17884e-05
-0.00914527
-1.16822e-05
-0.00913938
-1.15764e-05
-0.00913352
-1.14705e-05
-0.00912771
-1.13641e-05
-0.00912194
-1.12574e-05
-0.0091162
-1.11511e-05
-0.00911051
-1.10458e-05
-0.00910486
-1.09419e-05
-0.00909925
-1.08394e-05
-0.00909367
-1.07384e-05
-0.00908813
-1.06381e-05
-0.00908263
-1.05377e-05
-0.00907717
-1.04363e-05
-0.00907175
-1.03336e-05
-0.00906637
-1.02298e-05
-0.00906104
-1.01258e-05
-0.00905575
-1.00225e-05
-0.0090505
-9.92121e-06
-0.00904529
-9.82267e-06
-0.00904012
-9.72653e-06
-0.00903498
-9.63144e-06
-0.00902988
-9.53556e-06
-0.00902482
-9.43797e-06
-0.00901981
-9.33861e-06
-0.00901484
-9.23794e-06
-0.00900991
-9.13686e-06
-0.00900503
-9.0365e-06
-0.00900019
-8.93795e-06
-0.00899539
-8.84195e-06
-0.00899064
-8.74883e-06
-0.00898592
-8.65761e-06
-0.00898123
-8.56656e-06
-0.00897659
-8.4742e-06
-0.00897199
-8.38029e-06
-0.00896742
-8.28529e-06
-0.00896291
-8.18952e-06
-0.00895843
-8.09326e-06
-0.00895401
-7.99739e-06
-0.00894962
-7.90357e-06
-0.00894528
-7.81315e-06
-0.00894097
-7.72639e-06
-0.0089367
-7.64231e-06
-0.00893246
-7.55907e-06
-0.00892825
-7.4745e-06
-0.00892409
-7.38697e-06
-0.00891996
-7.29656e-06
-0.00891588
-7.20444e-06
-0.00891185
-7.11192e-06
-0.00890786
-7.02067e-06
-0.00890391
-6.93272e-06
-0.0089
-6.84896e-06
-0.00889613
-6.76808e-06
-0.00889229
-6.6877e-06
-0.0088885
-6.60872e-06
-0.00888477
-6.50624e-06
-0.00888119
-6.36325e-06
-0.00887776
-6.27383e-06
-0.00887379
-6.93544e-06
-0.00886996
-6.86709e-06
-0.00886628
-6.73566e-06
-0.00886268
-6.64161e-06
-0.00885915
-6.5343e-06
-0.00885562
-6.45982e-06
-0.00885205
-6.29494e-06
-0.00884866
-5.7572e-06
-0.00884517
-5.64357e-06
-0.0088417
-5.54796e-06
-0.00883828
-5.43189e-06
-0.00883492
-5.33755e-06
-0.00883157
-5.26808e-06
-0.00882819
-5.22272e-06
-0.00882473
-5.21144e-06
-0.00882104
-5.32645e-06
-0.00881721
-5.3866e-06
-0.00881369
-5.03677e-06
-0.00880996
-5.13821e-06
-0.00880601
-5.21465e-06
-0.0088019
-5.24059e-06
-0.00879768
-5.25551e-06
-0.0087934
-5.25604e-06
-0.00878912
-5.25245e-06
-0.00878499
-5.14575e-06
-0.00878076
-5.17938e-06
-0.00877561
-5.93306e-06
-0.0087702
-6.17572e-06
-0.00876463
-6.37842e-06
-0.00875892
-6.69767e-06
-0.00875319
-7.48823e-06
-0.00874626
-1.0263e-05
-0.00873826
-1.23218e-05
-0.00872918
-1.3195e-05
-0.00872386
-8.23707e-06
-0.00871775
-8.15015e-06
-0.00871014
-9.2316e-06
-0.00870146
-1.01512e-05
-0.00869179
-1.10651e-05
-0.00868121
-1.20018e-05
-0.00866999
-1.27277e-05
-0.00865938
-1.23233e-05
-0.00865224
-9.18028e-06
-0.00865483
5.28851e-08
-0.00867581
1.7877e-05
-0.00872587
4.64605e-05
-0.00880631
7.65832e-05
-0.0089049
9.48892e-05
-0.00898258
7.44893e-05
-0.0089738
-1.12481e-05
-0.00883396
-0.000141558
-0.0084902
-0.000344805
-0.00796815
-0.000522612
-0.00725551
-0.000712924
-0.00658813
-0.000667433
-0.00597549
-0.000612754
-0.000624583
-0.000311172
-4.06819e-05
-0.000299995
-0.000625197
0.000301544
-0.00137221
0.00132876
-0.00204392
0.00248113
-0.00230643
0.00350182
-0.00214406
0.00423823
-0.00167961
0.00454005
-0.000979376
0.00442237
-0.000261246
0.00384544
0.0004258
0.00290684
0.000902692
0.00174118
0.00117762
0.000525794
0.00120458
-0.00060964
0.00104709
-0.0015365
0.000689148
-0.00215693
0.000222804
-0.00240758
-0.000336221
-0.00226977
-0.000890571
-0.00173984
-0.00155342
-0.000796915
-0.00215508
0.000464162
-0.00262956
0.00194818
-0.00293167
0.00337305
-0.00294215
0.0046659
-0.0027377
0.00567783
-0.00222815
0.00640503
-0.00161951
0.00653978
-0.000762146
0.00609431
-5.84486e-05
0.00509682
0.000556503
0.0041547
0.000541517
0.00322833
0.000601546
0.00204935
0.000765275
0.000172677
0.00120295
-0.00233389
0.00195755
-0.00574626
0.0031699
-0.010458
0.00473929
-0.0166663
0.00670804
-0.0243725
0.00875549
-0.0332158
0.0107351
-0.0426638
0.0122831
-0.0520327
0.0131696
-0.0607469
0.0132412
-0.0683978
0.0126063
-0.0748863
0.0115879
-0.0801286
0.0101481
-0.0840725
0.00846031
-0.0868703
0.00674507
-0.0886401
0.00512836
-0.0895162
0.00354295
-0.0895904
0.00199571
-0.0889272
0.000476073
-0.0874033
-0.000998496
-0.0852121
-0.00234934
-0.0825235
-0.00345261
-0.0795261
-0.00465907
-0.0760636
-0.00555095
-0.0722156
-0.00653232
-0.0680139
-0.00721768
-0.06353
-0.00792884
-0.0588386
-0.0083952
-0.0539881
-0.0087793
-0.0490456
-0.00899073
-0.0440704
-0.00906869
-0.0391204
-0.00901997
-0.03425
-0.00885784
-0.0295075
-0.00859183
-0.024954
-0.00823052
-0.0206252
-0.00778144
-0.0165718
-0.00727954
-0.0128072
-0.00669897
-0.00940051
-0.00606592
-0.00637826
-0.0053445
-0.00369459
-0.00461083
-0.00130242
-0.00383229
0.000488273
-0.0031365
0.00175451
-0.00244694
0.00259933
-0.00183409
0.00283886
-0.00113538
0.00265396
-0.000583253
0.00194559
-6.48184e-05
0.00127748
9.0479e-05
2.69927e-05
0.000703308
-0.00191862
0.00157155
-0.00462589
0.00258341
-0.00822733
0.0037553
-0.0126084
0.00499739
-0.0176389
0.00621142
-0.0231538
0.00731319
-0.0288891
0.00808769
-0.0345592
0.00849241
-0.0399001
0.00847593
-0.0447478
0.00815079
-0.0489455
0.00751345
-0.0523203
0.00660261
-0.0548258
0.00554701
-0.0565444
0.00442545
-0.0574579
0.0031756
-0.0575101
0.0018467
-0.0567457
0.000328918
-0.0553633
-0.000920029
-0.0536596
-0.00185875
-0.0515799
-0.00288224
-0.0490837
-0.00391481
-0.0461376
-0.00495828
-0.0428135
-0.00568907
-0.0391788
-0.00632846
-0.0353019
-0.00678021
-0.0312885
-0.00705359
-0.0272143
-0.00715617
-0.0231744
-0.00711589
-0.0192104
-0.0069506
-0.015414
-0.00670058
-0.011736
-0.00637121
-0.00808593
-0.00601441
-0.00423206
-0.00563621
-0.000884554
-0.00525674
0.00208718
-0.00482924
0.00477351
-0.00439726
0.00721778
-0.00396365
0.00943853
-0.00353593
0.0113684
-0.00312279
0.0130457
-0.00269735
0.0144908
-0.00228373
0.0156984
-0.00186704
0.0166608
-0.00145207
0.017371
-0.00104625
0.0178454
-0.000682941
0.0179854
-0.000251944
0.0179007
0.000117521
0.0175458
0.000486297
0.0169177
0.000864461
0.016009
0.0012422
0.0148447
0.00158914
0.0134362
0.00191926
0.0117995
0.00220597
0.00997087
0.0024412
0.00800286
0.00261945
0.00593077
0.00273664
0.00379634
0.0027872
0.00165042
0.00277549
-0.000484001
0.00269976
-0.00256781
0.00257002
-0.00468031
0.00238278
-0.00661291
0.00209261
-0.0077234
0.0017011
-0.00862204
0.00128201
-0.00932784
0.000760437
-0.00981049
0.000330325
-0.0101275
-7.49466e-05
-0.0102939
-0.000311114
-0.0103232
-0.0004786
-0.010289
-0.000518602
-0.0107241
2.02704e-05
-0.0114237
0.000305382
-0.012311
0.000634581
-0.0134004
0.000958542
-0.0146518
0.00129644
-0.0160774
0.00162154
-0.0176516
0.00192326
-0.0193455
0.00217524
-0.021131
0.00238751
-0.0229737
0.00254476
-0.0248495
0.0026624
-0.0267365
0.00273937
-0.028616
0.00278092
-0.0304674
0.00278627
-0.0322705
0.00275872
-0.0339955
0.00269177
-0.0356043
0.0025831
-0.0370842
0.00245127
-0.0384103
0.00228322
-0.0395783
0.002093
-0.0405698
0.00186651
-0.0413687
0.00161442
-0.0419899
0.00136208
-0.0424599
0.00111828
-0.0427571
0.000830312
-0.0428286
0.000515743
-0.0427008
0.000194609
-0.042354
-0.000126433
-0.0418481
-0.00042311
-0.0411821
-0.000706953
-0.0403661
-0.000973922
-0.0394218
-0.00122116
-0.0383565
-0.00145593
-0.0372167
-0.00166026
-0.0361027
-0.00172829
-0.0349033
-0.00188034
-0.0337208
-0.00200651
-0.0328709
-0.00168256
-0.0318596
-0.00182493
-0.03076
-0.00189217
-0.0296526
-0.00188943
-0.0285719
-0.00184833
-0.0275324
-0.00178644
-0.026543
-0.00170962
-0.0256092
-0.00162253
-0.0247348
-0.00152812
-0.0239222
-0.00142896
-0.0231725
-0.00132735
-0.0224856
-0.00122521
-0.0218608
-0.00112405
-0.0212966
-0.00102523
-0.0207907
-0.000929651
-0.0203407
-0.000838091
-0.0199436
-0.000751103
-0.0195965
-0.00066909
-0.0192959
-0.000592245
-0.0190386
-0.000520763
-0.0188211
-0.000454663
-0.0186402
-0.000393904
-0.0184926
-0.000338274
-0.018375
-0.000287822
-0.0182845
-0.000242134
-0.018218
-0.000201211
-0.0181731
-0.000164272
-0.0181468
-0.00013199
-0.0181368
-0.000103833
-0.01814
-7.93777e-05
-0.0181547
-5.8011e-05
-0.0181786
-4.05792e-05
-0.0182106
-2.65413e-05
-0.0182487
-1.42655e-05
-0.0182914
-4.97548e-06
-0.0183374
1.92554e-06
-0.0183853
7.24194e-06
-0.0184342
1.07361e-05
-0.0184833
1.26985e-05
-0.0185317
1.32918e-05
-0.0185789
1.27077e-05
-0.0186242
1.1139e-05
-0.0186672
8.74329e-06
-0.0187076
5.69264e-06
-0.0187452
2.1914e-06
-0.0187799
-1.52927e-06
-0.0188116
-5.4957e-06
-0.0188402
-9.91417e-06
-0.0188657
-1.43902e-05
-0.0188879
-1.8565e-05
-0.0189071
-2.25099e-05
-0.0189234
-2.6754e-05
-0.0189371
-3.06553e-05
-0.0189484
-3.41019e-05
-0.0189575
-3.73054e-05
-0.0189646
-4.02193e-05
-0.0189699
-4.28359e-05
-0.0189735
-4.515e-05
-0.0189757
-4.71668e-05
-0.0189767
-4.88023e-05
-0.0189766
-5.01815e-05
-0.0189756
-5.13482e-05
-0.0189739
-5.21977e-05
-0.0189715
-5.28397e-05
-0.0189687
-5.3225e-05
-0.0189656
-5.34321e-05
-0.0189622
-5.3453e-05
-0.0189587
-5.33268e-05
-0.0189551
-5.30702e-05
-0.0189514
-5.2708e-05
-0.0189479
-5.2259e-05
-0.0189443
-5.17431e-05
-0.0189409
-5.11769e-05
-0.0189377
-5.05764e-05
-0.0189345
-4.99557e-05
-0.0189316
-4.93259e-05
-0.0189287
-4.86968e-05
-0.018926
-4.80766e-05
-0.0189235
-4.74717e-05
-0.018921
-4.6887e-05
-0.0189187
-4.63249e-05
-0.0189165
-4.5788e-05
-0.0189144
-4.52772e-05
-0.0189124
-4.47922e-05
-0.0189104
-4.43315e-05
-0.0189085
-4.3894e-05
-0.0189066
-4.34783e-05
-0.0189048
-4.30819e-05
-0.018903
-4.2703e-05
-0.0189013
-4.23402e-05
-0.0188995
-4.19919e-05
-0.0188978
-4.1656e-05
-0.0188961
-4.13305e-05
-0.0188944
-4.10144e-05
-0.0188927
-4.07073e-05
-0.0188911
-4.04082e-05
-0.0188894
-4.01165e-05
-0.0188877
-3.98315e-05
-0.0188861
-3.95525e-05
-0.0188844
-3.92785e-05
-0.0188827
-3.90088e-05
-0.018881
-3.87429e-05
-0.0188794
-3.84802e-05
-0.0188777
-3.82199e-05
-0.018876
-3.79624e-05
-0.0188743
-3.77079e-05
-0.0188726
-3.74559e-05
-0.018871
-3.7206e-05
-0.0188693
-3.69586e-05
-0.0188676
-3.67142e-05
-0.0188659
-3.6473e-05
-0.0188642
-3.62359e-05
-0.0188625
-3.60037e-05
-0.0188608
-3.5776e-05
-0.018859
-3.55514e-05
-0.0188573
-3.53298e-05
-0.0188556
-3.51104e-05
-0.0188538
-3.48919e-05
-0.0188521
-3.4674e-05
-0.0188503
-3.44569e-05
-0.0188485
-3.42399e-05
-0.0188467
-3.40228e-05
-0.0188449
-3.38067e-05
-0.0188431
-3.35927e-05
-0.0188413
-3.33808e-05
-0.0188395
-3.31713e-05
-0.0188377
-3.29643e-05
-0.0188358
-3.27588e-05
-0.018834
-3.25543e-05
-0.0188321
-3.23508e-05
-0.0188302
-3.21478e-05
-0.0188283
-3.19454e-05
-0.0188264
-3.17447e-05
-0.0188245
-3.1546e-05
-0.0188226
-3.13488e-05
-0.0188206
-3.1153e-05
-0.0188187
-3.09586e-05
-0.0188167
-3.07654e-05
-0.0188147
-3.05735e-05
-0.0188127
-3.03828e-05
-0.0188107
-3.01932e-05
-0.0188086
-3.00046e-05
-0.0188066
-2.98175e-05
-0.0188045
-2.96318e-05
-0.0188024
-2.94474e-05
-0.0188002
-2.92642e-05
-0.0187981
-2.90815e-05
-0.0187959
-2.88986e-05
-0.0187938
-2.87157e-05
-0.0187915
-2.85327e-05
-0.0187893
-2.83503e-05
-0.0187871
-2.81696e-05
-0.0187848
-2.79905e-05
-0.0187825
-2.78128e-05
-0.0187802
-2.76362e-05
-0.0187779
-2.74596e-05
-0.0187755
-2.72832e-05
-0.0187731
-2.7107e-05
-0.0187707
-2.69313e-05
-0.0187683
-2.67564e-05
-0.0187659
-2.65824e-05
-0.0187634
-2.6409e-05
-0.0187609
-2.62357e-05
-0.0187584
-2.60623e-05
-0.0187558
-2.5889e-05
-0.0187533
-2.57162e-05
-0.0187507
-2.55439e-05
-0.0187481
-2.53721e-05
-0.0187455
-2.52007e-05
-0.0187428
-2.50295e-05
-0.0187402
-2.48589e-05
-0.0187375
-2.46888e-05
-0.0187347
-2.45189e-05
-0.018732
-2.43489e-05
-0.0187293
-2.41788e-05
-0.0187265
-2.4009e-05
-0.0187237
-2.38397e-05
-0.0187209
-2.36706e-05
-0.018718
-2.35015e-05
-0.0187152
-2.33323e-05
-0.0187123
-2.31633e-05
-0.0187094
-2.29944e-05
-0.0187065
-2.28253e-05
-0.0187036
-2.26562e-05
-0.0187007
-2.24873e-05
-0.0186977
-2.23188e-05
-0.0186948
-2.21509e-05
-0.0186918
-2.19837e-05
-0.0186888
-2.18174e-05
-0.0186858
-2.16517e-05
-0.0186828
-2.14857e-05
-0.0186797
-2.1319e-05
-0.0186767
-2.11509e-05
-0.0186736
-2.09819e-05
-0.0186706
-2.0813e-05
-0.0186675
-2.0645e-05
-0.0186644
-2.04783e-05
-0.0186613
-2.03126e-05
-0.0186582
-2.01472e-05
-0.0186551
-1.99813e-05
-0.018652
-1.98147e-05
-0.0186489
-1.96479e-05
-0.0186458
-1.94816e-05
-0.0186426
-1.93169e-05
-0.0186395
-1.91542e-05
-0.0186363
-1.89934e-05
-0.0186332
-1.88342e-05
-0.01863
-1.86754e-05
-0.0186269
-1.85159e-05
-0.0186237
-1.83545e-05
-0.0186206
-1.8191e-05
-0.0186174
-1.80261e-05
-0.0186142
-1.7861e-05
-0.0186111
-1.76974e-05
-0.0186079
-1.7537e-05
-0.0186047
-1.73803e-05
-0.0186016
-1.72267e-05
-0.0185984
-1.70738e-05
-0.0185952
-1.69191e-05
-0.0185921
-1.67616e-05
-0.0185889
-1.66013e-05
-0.0185857
-1.64393e-05
-0.0185826
-1.62771e-05
-0.0185794
-1.61166e-05
-0.0185763
-1.59591e-05
-0.0185731
-1.58057e-05
-0.01857
-1.56563e-05
-0.0185669
-1.55093e-05
-0.0185637
-1.53621e-05
-0.0185606
-1.52128e-05
-0.0185574
-1.50612e-05
-0.0185543
-1.49081e-05
-0.0185512
-1.47544e-05
-0.0185481
-1.46009e-05
-0.018545
-1.44491e-05
-0.0185418
-1.43013e-05
-0.0185387
-1.4159e-05
-0.0185356
-1.40224e-05
-0.0185325
-1.38895e-05
-0.0185294
-1.37576e-05
-0.0185263
-1.36236e-05
-0.0185232
-1.34859e-05
-0.0185201
-1.3345e-05
-0.0185169
-1.32032e-05
-0.0185138
-1.3063e-05
-0.0185107
-1.29273e-05
-0.0185076
-1.27988e-05
-0.0185045
-1.26791e-05
-0.0185013
-1.25652e-05
-0.0184982
-1.24523e-05
-0.018495
-1.23576e-05
-0.0184918
-1.22064e-05
-0.0184888
-1.19357e-05
-0.0184864
-1.12208e-05
-0.0184822
-1.39702e-05
-0.0184787
-1.32687e-05
-0.0184753
-1.30478e-05
-0.0184719
-1.29666e-05
-0.0184685
-1.28356e-05
-0.0184653
-1.25056e-05
-0.018462
-1.22747e-05
-0.0184579
-1.199e-05
-0.0184538
-1.18477e-05
-0.0184499
-1.15197e-05
-0.0184457
-1.15306e-05
-0.0184415
-1.15519e-05
-0.018437
-1.16692e-05
-0.0184323
-1.17995e-05
-0.0184273
-1.19814e-05
-0.0184222
-1.20773e-05
-0.0184168
-1.24315e-05
-0.0184103
-1.31434e-05
-0.0184032
-1.36229e-05
-0.018396
-1.38578e-05
-0.0183882
-1.43387e-05
-0.0183798
-1.48882e-05
-0.0183706
-1.55842e-05
-0.0183606
-1.64466e-05
-0.0183493
-1.76895e-05
-0.0183371
-1.86706e-05
-0.0183249
-1.93623e-05
-0.0183113
-2.09632e-05
-0.0182954
-2.36087e-05
-0.0182762
-2.72488e-05
-0.0182547
-3.09317e-05
-0.0182342
-3.50632e-05
-0.0182105
-4.15602e-05
-0.0181754
-5.34857e-05
-0.0181525
-3.35958e-05
-0.0181201
-4.21938e-05
-0.0180823
-4.83431e-05
-0.0180393
-5.43007e-05
-0.0179907
-6.08672e-05
-0.0179358
-6.82035e-05
-0.0178739
-7.61205e-05
-0.0178042
-8.37624e-05
-0.017726
-8.95316e-05
-0.017638
-9.07308e-05
-0.0175374
-8.58579e-05
-0.0174188
-7.55753e-05
-0.0172711
-7.45739e-05
-0.0170746
-0.000104764
-0.0167998
-0.00020293
-0.0164101
-0.000402975
-0.0158732
-0.000679827
-0.015147
-0.00107196
-0.0142572
-0.00141276
-0.0131449
-0.00182529
-0.0119975
-0.00181452
-0.0108186
-0.00179123
-0.00142002
-0.000140211
-0.00023978
0.000269641
-0.00137411
0.00128084
-0.00272213
0.00265224
-0.00375364
0.00408354
-0.00407548
0.00532051
-0.00371818
0.00622089
-0.00291639
0.00674906
-0.00184322
0.00682834
-0.00067542
0.00645773
0.000462496
0.0056208
0.00140671
0.00451704
0.00194936
0.0032651
0.00212567
0.00198982
0.00199266
0.000821011
0.00152954
-0.000133877
0.000850556
-0.000683143
-0.000112895
-0.000677506
-0.00122123
-0.000187923
-0.00236682
0.000651744
-0.0033165
0.0018089
-0.00410704
0.00320635
-0.00464831
0.00459875
-0.00465215
0.00576061
-0.00421555
0.00651594
-0.00329771
0.00673326
-0.00214916
0.00659078
-0.000929941
0.00615588
6.82845e-05
0.00526623
0.0011401
0.00355167
0.00195211
0.00104217
0.0028091
-0.00230363
0.00381127
-0.00664392
0.00524578
-0.0124082
0.00742719
-0.0199071
0.0103779
-0.0290814
0.0136259
-0.039447
0.0167886
-0.0503543
0.0193805
-0.0608865
0.0209863
-0.0703291
0.0214467
-0.0782639
0.020827
-0.0845049
0.0192062
-0.0891237
0.0169504
-0.0923386
0.0145307
-0.0943197
0.0118575
-0.0955047
0.00937569
-0.0960877
0.00706258
-0.0962492
0.00502633
-0.0959017
0.00293533
-0.0949354
0.000772266
-0.0934992
-0.00121372
-0.0915856
-0.00316184
-0.0892476
-0.00493296
-0.0863388
-0.0066039
-0.0829505
-0.00828665
-0.0790723
-0.00966626
-0.0747985
-0.0110415
-0.0701781
-0.0120729
-0.0653324
-0.0130097
-0.0603326
-0.0136314
-0.0552575
-0.0140934
-0.0501608
-0.0143302
-0.0450883
-0.0143889
-0.0400769
-0.0142847
-0.0351599
-0.0140319
-0.0303587
-0.0136536
-0.0256926
-0.0131589
-0.0211842
-0.0125513
-0.0168931
-0.011827
-0.0128574
-0.0109836
-0.00913655
-0.0100262
-0.00575929
-0.00895078
-0.00281486
-0.00777673
-0.000319165
-0.00654214
0.00163636
-0.0053004
0.00297807
-0.00399249
0.0035955
-0.00264985
0.00363433
-0.00136712
0.00328022
-0.00041773
0.002277
0.000752807
6.6768e-05
0.00211684
-0.00305147
0.00363895
-0.00704895
0.00538782
-0.0119891
0.00734444
-0.0176588
0.0092483
-0.0237577
0.0109227
-0.0299089
0.0121923
-0.0356957
0.0129333
-0.0408253
0.0130544
-0.0452042
0.0127109
-0.0488329
0.0119471
-0.0517321
0.0108951
-0.0539777
0.00960658
-0.0556935
0.0081683
-0.0569583
0.00666333
-0.0577386
0.00505919
-0.0580436
0.00333649
-0.0578385
0.00150021
-0.0571129
-0.000536665
-0.0557059
-0.00246376
-0.0534458
-0.00425348
-0.0504967
-0.00596343
-0.0470873
-0.00745465
-0.0434145
-0.00875943
-0.0393963
-0.00983312
-0.0351439
-0.0107041
-0.0307414
-0.0113033
-0.0262726
-0.0116406
-0.0218062
-0.0117381
-0.0174032
-0.0116319
-0.0130997
-0.0113641
-0.00894576
-0.0109624
-0.0049476
-0.0104743
-0.00118307
-0.00988224
0.00233143
-0.00925241
0.00561781
-0.00864411
0.00873498
-0.00804612
0.011677
-0.00743787
0.0144312
-0.00681584
0.0169867
-0.00618855
0.0193469
-0.00557923
0.0215194
-0.00496604
0.0234949
-0.004355
0.0252711
-0.00373878
0.0268426
-0.00311883
0.0282106
-0.00250867
0.0293319
-0.0018974
0.0302249
-0.00123745
0.0308516
-0.000601289
0.0311855
6.11286e-05
0.0312125
0.000747119
0.0309323
0.00143318
0.0303167
0.00211653
0.0293533
0.00279561
0.0280246
0.00344876
0.0263234
0.00405763
0.0242556
0.00460353
0.0218419
0.00506794
0.0191206
0.0054273
0.0161541
0.00566198
0.0130145
0.00576055
0.00980047
0.00570646
0.00661721
0.00549021
0.00356749
0.00506787
0.000679586
0.00451598
-0.00185413
0.00374377
-0.00399803
0.0028337
-0.00569308
0.00195623
-0.00704849
0.00121244
-0.0081459
0.000719312
-0.00919703
0.000506196
-0.0103907
0.000609337
-0.0113447
0.000908406
-0.0125226
0.00141942
-0.0139509
0.00199899
-0.0156723
0.00261778
-0.0176215
0.00318391
-0.0197195
0.00365929
-0.0218935
0.00403787
-0.0240896
0.00431326
-0.0262599
0.00450097
-0.0283764
0.00460573
-0.0304111
0.00464285
-0.0323446
0.00462001
-0.034161
0.00454572
-0.0358506
0.00442547
-0.0374002
0.00425906
-0.038812
0.00405547
-0.0401007
0.00382444
-0.0412677
0.00357208
-0.0422942
0.00326444
-0.0431684
0.00292275
-0.0438693
0.00252411
-0.044398
0.00210115
-0.0447555
0.00167836
-0.0449301
0.00125271
-0.0449226
0.000783531
-0.0447225
0.000277133
-0.0443293
-0.000236436
-0.0437793
-0.000713596
-0.0430785
-0.00116062
-0.0422371
-0.00158448
-0.041268
-0.00197888
-0.0401936
-0.00233085
-0.0390379
-0.00264746
-0.0378001
-0.00293269
-0.0364124
-0.00314887
-0.0350241
-0.00330648
-0.0336003
-0.00346542
-0.0318524
-0.00346564
-0.0302754
-0.00343678
-0.0288228
-0.00338089
-0.0274451
-0.00330408
-0.0261308
-0.00320015
-0.0248837
-0.00307122
-0.0237089
-0.0029221
-0.0226113
-0.00275775
-0.0215943
-0.00258278
-0.0206594
-0.00240127
-0.0198071
-0.00221686
-0.0190366
-0.00203258
-0.018346
-0.00185099
-0.0177327
-0.00167438
-0.0171935
-0.0015042
-0.0167246
-0.00134179
-0.0163218
-0.0011881
-0.0159807
-0.00104385
-0.0156965
-0.000909405
-0.0154646
-0.00078507
-0.0152804
-0.000670805
-0.0151391
-0.000566508
-0.0150362
-0.000471918
-0.0149672
-0.000386998
-0.0149279
-0.000311158
-0.0149143
-0.000244029
-0.0149228
-0.000184408
-0.0149505
-0.000132581
-0.014994
-8.81149e-05
-0.0150499
-5.07691e-05
-0.0151152
-1.96322e-05
-0.015188
5.66062e-06
-0.0152679
2.72181e-05
-0.0153517
4.38577e-05
-0.015438
5.59978e-05
-0.0155259
6.48271e-05
-0.0156135
7.03182e-05
-0.0157002
7.31804e-05
-0.0157849
7.35218e-05
-0.0158671
7.18461e-05
-0.0159459
6.83307e-05
-0.0160211
6.33844e-05
-0.0160922
5.72336e-05
-0.0161591
5.03249e-05
-0.016222
4.30719e-05
-0.0162809
3.56529e-05
-0.0163358
2.78796e-05
-0.0163866
1.97649e-05
-0.0164333
1.14052e-05
-0.0164756
3.08762e-06
-0.0165136
-4.92143e-06
-0.0165484
-1.20777e-05
-0.0165806
-1.82915e-05
-0.0166103
-2.40899e-05