/*--------------------------------*- C++ -*----------------------------------*\
| =========                 |                                                 |
| \\      /  F ield         | OpenFOAM: The Open Source CFD Toolbox           |
|  \\    /   O peration     | Version:  v1812                                 |
|   \\  /    A nd           | Web:      www.OpenFOAM.com                      |
|    \\/     M anipulation  |                                                 |
\*---------------------------------------------------------------------------*/
FoamFile
{
    version     2.0;
    format      ascii;
    class       volScalarField;
    location    "0.6";
    object      T;
}
// * * * * * * * * * * * * * * * * * * * * * * * * * * * * * * * * * * * * * //

dimensions      [0 0 0 1 0 0 0];


internalField   nonuniform List<scalar> 
20400
(
290.452
290.397
290.313
290.222
290.143
290.081
290.037
290.009
289.995
289.988
289.989
289.996
290.009
290.03
290.06
290.099
290.146
290.198
290.253
290.307
290.36
290.411
290.458
290.5
290.536
290.566
290.586
290.596
290.591
290.574
290.542
290.498
290.457
290.432
290.431
290.461
290.525
290.616
290.73
290.861
291.002
291.138
291.265
291.382
291.496
291.605
291.715
291.825
291.938
292.052
292.167
292.285
292.402
292.524
292.656
292.8
292.955
293.119
293.291
293.469
293.65
293.831
294.006
294.172
294.322
294.452
294.557
294.633
294.677
294.692
294.676
294.612
294.506
294.346
294.136
293.877
293.579
293.261
292.943
292.646
292.383
292.162
291.979
291.828
291.704
291.604
291.524
291.464
291.422
291.396
291.381
291.375
291.374
291.372
291.371
291.367
291.363
291.359
291.354
291.35
291.348
291.347
291.345
291.344
291.343
291.341
291.338
291.335
291.333
291.33
291.328
291.332
291.336
291.351
291.364
291.386
291.415
291.453
291.499
291.55
291.606
291.665
291.727
291.789
291.85
291.907
291.958
292.004
292.042
292.076
292.102
292.122
292.136
292.145
292.15
292.151
292.149
292.145
292.137
292.126
292.111
292.092
292.069
292.042
292.011
291.978
291.943
291.906
291.869
291.831
291.792
291.755
291.718
291.682
291.647
291.615
291.585
291.558
291.535
291.516
291.501
291.489
291.482
291.479
291.479
291.482
291.489
291.499
291.511
291.525
291.543
291.561
291.583
291.606
291.63
291.657
291.685
291.715
291.747
291.78
291.815
291.851
291.889
291.928
291.969
292.011
292.055
292.099
292.144
292.191
292.238
292.283
292.327
292.37
292.412
292.452
292.491
292.529
292.564
292.598
292.629
292.659
292.687
292.713
292.737
292.759
292.779
292.798
292.815
292.831
292.846
292.859
292.871
292.882
292.893
292.902
292.911
292.919
292.927
292.934
292.941
292.947
292.953
292.958
292.963
292.969
292.974
292.978
292.983
292.987
292.991
292.995
292.999
293.003
293.007
293.011
293.015
293.019
293.022
293.026
293.03
293.033
293.037
293.041
293.044
293.048
293.051
293.055
293.059
293.062
293.066
293.069
293.073
293.076
293.08
293.083
293.087
293.09
293.094
293.097
293.101
293.104
293.108
293.111
293.115
293.118
293.122
293.125
293.129
293.132
293.136
293.139
293.142
293.146
293.149
293.153
293.156
293.159
293.163
293.166
293.17
293.173
293.176
293.18
293.183
293.187
293.19
293.193
293.197
293.2
293.203
293.207
293.21
293.213
293.217
293.22
293.223
293.227
293.23
293.234
293.237
293.24
293.244
293.247
293.25
293.254
293.257
293.26
293.264
293.267
293.27
293.274
293.277
293.28
293.284
293.287
293.29
293.293
293.297
293.3
293.303
293.307
293.31
293.313
293.317
293.32
293.323
293.326
293.33
293.333
293.336
293.34
293.343
293.346
293.349
293.353
293.356
293.359
293.362
293.365
293.369
293.372
293.375
293.378
293.382
293.385
293.388
293.391
293.394
293.397
293.401
293.404
293.407
293.41
293.413
293.416
293.42
293.423
293.426
293.429
293.432
293.435
293.438
293.441
293.445
293.448
293.451
293.454
293.457
293.46
293.463
293.466
293.469
293.472
293.475
293.479
293.482
293.485
293.488
293.491
293.494
293.497
293.5
293.503
293.506
293.509
293.512
293.515
293.518
293.521
293.524
293.528
293.531
293.534
293.537
293.54
293.543
293.546
293.549
293.552
293.555
293.558
293.561
293.564
293.567
293.57
293.573
293.576
293.579
293.582
293.585
293.588
293.591
293.594
293.597
293.6
293.603
293.606
293.609
293.612
293.615
293.619
293.622
293.625
293.628
293.631
293.634
293.637
293.64
293.643
293.646
293.649
293.652
293.655
293.658
293.661
293.663
293.666
293.669
293.672
293.675
293.678
293.681
293.684
293.687
293.69
293.693
293.696
293.699
293.702
293.705
293.708
293.71
293.713
293.716
293.719
293.722
293.725
293.728
293.731
293.734
293.737
293.739
293.742
293.745
293.748
293.751
293.753
293.756
293.759
293.762
293.764
293.767
293.769
293.772
293.775
293.777
293.779
293.781
293.782
293.783
293.783
293.782
293.779
293.772
293.758
293.734
293.696
293.641
293.57
293.488
293.406
293.333
293.275
293.235
293.212
293.204
293.206
293.218
293.227
290.328
290.262
290.164
290.067
289.988
289.932
289.898
289.883
289.882
289.889
289.902
289.92
289.942
289.969
290
290.038
290.081
290.129
290.179
290.23
290.281
290.332
290.381
290.426
290.468
290.504
290.533
290.552
290.557
290.548
290.522
290.483
290.446
290.43
290.451
290.516
290.611
290.71
290.8
290.874
290.931
290.96
290.968
290.953
290.924
290.888
290.853
290.819
290.789
290.768
290.758
290.769
290.809
290.876
290.963
291.079
291.216
291.381
291.57
291.787
292.027
292.291
292.574
292.868
293.163
293.447
293.71
293.937
294.119
294.25
294.327
294.357
294.34
294.275
294.15
293.962
293.706
293.393
293.044
292.69
292.37
292.105
291.894
291.73
291.605
291.515
291.453
291.413
291.387
291.374
291.367
291.364
291.361
291.359
291.358
291.357
291.36
291.367
291.381
291.4
291.417
291.429
291.437
291.44
291.44
291.43
291.41
291.385
291.353
291.317
291.278
291.235
291.193
291.15
291.112
291.069
291.031
291.003
290.99
290.989
290.997
291.015
291.042
291.079
291.124
291.175
291.23
291.292
291.36
291.432
291.505
291.577
291.648
291.715
291.778
291.836
291.888
291.935
291.976
292.009
292.033
292.047
292.051
292.044
292.028
291.999
291.963
291.917
291.866
291.811
291.753
291.697
291.641
291.591
291.542
291.497
291.455
291.417
291.383
291.352
291.325
291.301
291.281
291.265
291.251
291.239
291.23
291.223
291.218
291.214
291.213
291.214
291.216
291.222
291.229
291.238
291.25
291.264
291.282
291.301
291.325
291.352
291.384
291.42
291.459
291.503
291.549
291.597
291.653
291.703
291.758
291.815
291.875
291.936
291.997
292.058
292.119
292.178
292.235
292.29
292.343
292.393
292.44
292.485
292.526
292.564
292.6
292.633
292.663
292.691
292.716
292.74
292.761
292.78
292.798
292.814
292.829
292.842
292.855
292.866
292.876
292.886
292.895
292.903
292.91
292.918
292.924
292.931
292.937
292.942
292.947
292.952
292.957
292.962
292.966
292.971
292.975
292.979
292.983
292.987
292.991
292.994
292.998
293.002
293.005
293.009
293.013
293.016
293.02
293.023
293.027
293.031
293.034
293.038
293.041
293.045
293.048
293.052
293.055
293.058
293.062
293.065
293.069
293.072
293.076
293.079
293.082
293.086
293.089
293.092
293.096
293.099
293.102
293.106
293.109
293.112
293.116
293.119
293.122
293.126
293.129
293.132
293.135
293.139
293.142
293.145
293.149
293.152
293.155
293.158
293.162
293.165
293.168
293.171
293.175
293.178
293.181
293.184
293.188
293.191
293.194
293.197
293.201
293.204
293.207
293.21
293.213
293.217
293.22
293.223
293.226
293.23
293.233
293.236
293.239
293.243
293.246
293.249
293.252
293.255
293.259
293.262
293.265
293.268
293.272
293.275
293.278
293.281
293.284
293.288
293.291
293.294
293.297
293.3
293.303
293.307
293.31
293.313
293.316
293.319
293.322
293.326
293.329
293.332
293.335
293.338
293.341
293.344
293.348
293.351
293.354
293.357
293.36
293.363
293.366
293.369
293.372
293.375
293.378
293.381
293.384
293.388
293.391
293.394
293.397
293.4
293.403
293.406
293.409
293.412
293.415
293.418
293.421
293.424
293.427
293.43
293.433
293.436
293.439
293.442
293.445
293.448
293.451
293.453
293.456
293.459
293.462
293.465
293.468
293.471
293.474
293.477
293.48
293.483
293.486
293.489
293.492
293.495
293.498
293.501
293.504
293.506
293.509
293.512
293.515
293.518
293.521
293.524
293.527
293.53
293.533
293.536
293.539
293.542
293.544
293.547
293.55
293.553
293.556
293.559
293.562
293.565
293.568
293.571
293.574
293.577
293.579
293.582
293.585
293.588
293.591
293.594
293.597
293.6
293.603
293.605
293.608
293.611
293.614
293.617
293.62
293.622
293.625
293.628
293.631
293.634
293.637
293.64
293.642
293.645
293.648
293.651
293.654
293.656
293.659
293.662
293.665
293.668
293.671
293.674
293.676
293.679
293.682
293.685
293.687
293.69
293.693
293.695
293.698
293.701
293.703
293.706
293.708
293.711
293.713
293.716
293.718
293.719
293.721
293.722
293.722
293.721
293.719
293.713
293.702
293.683
293.652
293.608
293.552
293.487
293.42
293.355
293.299
293.252
293.215
293.189
293.174
293.169
293.173
293.181
290.118
290.038
289.931
289.836
289.768
289.725
289.705
289.703
289.711
289.73
289.757
289.79
289.825
289.863
289.902
289.942
289.985
290.03
290.077
290.129
290.185
290.242
290.297
290.347
290.391
290.431
290.464
290.489
290.501
290.496
290.477
290.444
290.423
290.43
290.476
290.538
290.588
290.613
290.602
290.518
290.388
290.223
290.041
289.853
289.675
289.516
289.381
289.273
289.191
289.137
289.111
289.107
289.141
289.183
289.241
289.315
289.402
289.506
289.626
289.767
289.934
290.135
290.378
290.676
291.026
291.427
291.87
292.338
292.79
293.192
293.508
293.723
293.839
293.874
293.84
293.738
293.556
293.292
292.963
292.605
292.263
291.975
291.757
291.6
291.493
291.425
291.387
291.371
291.368
291.382
291.397
291.419
291.447
291.481
291.521
291.566
291.615
291.665
291.709
291.745
291.779
291.809
291.835
291.853
291.861
291.862
291.841
291.808
291.758
291.692
291.61
291.512
291.401
291.282
291.159
291.042
290.929
290.821
290.717
290.624
290.545
290.479
290.428
290.392
290.374
290.37
290.375
290.394
290.43
290.484
290.555
290.639
290.737
290.846
290.963
291.088
291.215
291.344
291.471
291.592
291.705
291.803
291.883
291.941
291.976
291.993
291.993
291.964
291.912
291.842
291.758
291.667
291.577
291.488
291.408
291.332
291.263
291.197
291.135
291.077
291.022
290.972
290.925
290.882
290.844
290.809
290.777
290.749
290.723
290.7
290.681
290.664
290.651
290.643
290.637
290.634
290.633
290.635
290.64
290.649
290.662
290.676
290.693
290.711
290.732
290.754
290.782
290.813
290.845
290.888
290.934
290.986
291.044
291.11
291.181
291.257
291.338
291.422
291.508
291.596
291.685
291.772
291.857
291.94
292.019
292.094
292.164
292.231
292.292
292.35
292.403
292.452
292.496
292.537
292.575
292.609
292.64
292.668
292.694
292.717
292.739
292.758
292.776
292.792
292.807
292.821
292.833
292.845
292.856
292.865
292.874
292.883
292.89
292.898
292.904
292.911
292.916
292.922
292.927
292.932
292.937
292.941
292.946
292.95
292.954
292.958
292.962
292.965
292.969
292.973
292.976
292.98
292.983
292.987
292.99
292.994
292.997
293
293.004
293.007
293.01
293.014
293.017
293.02
293.024
293.027
293.03
293.033
293.036
293.04
293.043
293.046
293.049
293.052
293.055
293.058
293.062
293.065
293.068
293.071
293.074
293.077
293.08
293.083
293.086
293.089
293.092
293.095
293.098
293.101
293.104
293.107
293.11
293.113
293.116
293.119
293.122
293.125
293.128
293.131
293.134
293.137
293.14
293.143
293.146
293.149
293.152
293.155
293.158
293.161
293.164
293.167
293.17
293.173
293.176
293.179
293.182
293.185
293.188
293.191
293.194
293.197
293.2
293.203
293.206
293.209
293.212
293.215
293.218
293.221
293.224
293.227
293.23
293.233
293.236
293.24
293.243
293.246
293.249
293.252
293.255
293.258
293.261
293.264
293.266
293.269
293.272
293.275
293.278
293.281
293.284
293.287
293.29
293.293
293.296
293.299
293.302
293.305
293.308
293.311
293.314
293.317
293.319
293.322
293.325
293.328
293.331
293.334
293.337
293.34
293.342
293.345
293.348
293.351
293.354
293.356
293.359
293.362
293.365
293.368
293.371
293.373
293.376
293.379
293.382
293.384
293.387
293.39
293.393
293.395
293.398
293.401
293.404
293.407
293.409
293.412
293.415
293.417
293.42
293.423
293.426
293.428
293.431
293.434
293.437
293.439
293.442
293.445
293.448
293.45
293.453
293.456
293.458
293.461
293.464
293.467
293.469
293.472
293.475
293.478
293.48
293.483
293.486
293.488
293.491
293.494
293.497
293.499
293.502
293.505
293.507
293.51
293.513
293.516
293.518
293.521
293.524
293.526
293.529
293.532
293.534
293.537
293.54
293.542
293.545
293.547
293.55
293.553
293.555
293.558
293.561
293.563
293.566
293.569
293.571
293.574
293.577
293.579
293.582
293.585
293.587
293.59
293.593
293.595
293.598
293.6
293.603
293.605
293.608
293.61
293.612
293.615
293.617
293.619
293.621
293.623
293.626
293.628
293.63
293.631
293.632
293.632
293.63
293.627
293.62
293.607
293.587
293.559
293.522
293.48
293.436
293.392
293.349
293.308
293.266
293.225
293.186
293.156
293.143
293.146
289.885
289.807
289.717
289.648
289.603
289.579
289.569
289.571
289.579
289.597
289.623
289.659
289.7
289.746
289.792
289.838
289.883
289.931
289.985
290.046
290.112
290.178
290.236
290.285
290.326
290.363
290.396
290.423
290.438
290.436
290.419
290.401
290.397
290.413
290.431
290.434
290.363
290.225
290.019
289.757
289.487
289.23
289.006
288.825
288.685
288.58
288.524
288.497
288.492
288.519
288.564
288.618
288.682
288.75
288.818
288.885
288.948
289.009
289.067
289.123
289.181
289.246
289.318
289.397
289.522
289.717
290.002
290.402
290.921
291.519
292.135
292.669
293.05
293.258
293.326
293.291
293.175
292.979
292.708
292.391
292.076
291.812
291.616
291.482
291.399
291.357
291.344
291.348
291.379
291.42
291.472
291.53
291.59
291.648
291.701
291.753
291.799
291.841
291.878
291.913
291.95
291.985
292.018
292.048
292.071
292.085
292.091
292.082
292.053
292.005
291.935
291.84
291.72
291.577
291.414
291.237
291.054
290.869
290.69
290.523
290.367
290.224
290.098
289.989
289.9
289.828
289.772
289.737
289.724
289.729
289.746
289.782
289.84
289.918
290.019
290.141
290.283
290.444
290.621
290.81
291.006
291.201
291.387
291.554
291.696
291.811
291.89
291.931
291.939
291.906
291.821
291.709
291.577
291.437
291.305
291.183
291.071
290.968
290.871
290.777
290.69
290.611
290.538
290.473
290.416
290.368
290.327
290.296
290.275
290.26
290.252
290.249
290.25
290.262
290.276
290.294
290.315
290.338
290.362
290.384
290.404
290.42
290.434
290.444
290.449
290.451
290.449
290.446
290.439
290.432
290.426
290.42
290.417
290.413
290.42
290.437
290.466
290.509
290.565
290.635
290.719
290.814
290.917
291.025
291.138
291.252
291.365
291.476
291.584
291.687
291.785
291.878
291.964
292.045
292.12
292.189
292.253
292.311
292.365
292.414
292.46
292.501
292.539
292.574
292.606
292.635
292.662
292.686
292.708
292.729
292.748
292.765
292.781
292.795
292.809
292.821
292.832
292.842
292.851
292.86
292.867
292.875
292.881
292.887
292.893
292.898
292.903
292.908
292.912
292.916
292.92
292.924
292.928
292.932
292.935
292.939
292.942
292.946
292.949
292.952
292.956
292.959
292.962
292.965
292.968
292.972
292.975
292.978
292.981
292.984
292.987
292.99
292.993
292.996
292.999
293.002
293.005
293.008
293.011
293.014
293.016
293.019
293.022
293.025
293.028
293.031
293.033
293.036
293.039
293.042
293.044
293.047
293.05
293.053
293.055
293.058
293.061
293.063
293.066
293.069
293.072
293.074
293.077
293.08
293.082
293.085
293.088
293.09
293.093
293.096
293.099
293.101
293.104
293.107
293.109
293.112
293.115
293.118
293.12
293.123
293.126
293.129
293.131
293.134
293.137
293.14
293.142
293.145
293.148
293.151
293.153
293.156
293.159
293.162
293.165
293.167
293.17
293.173
293.176
293.179
293.182
293.184
293.187
293.19
293.193
293.196
293.198
293.201
293.204
293.207
293.21
293.212
293.215
293.218
293.221
293.224
293.226
293.229
293.232
293.235
293.237
293.24
293.243
293.246
293.248
293.251
293.254
293.257
293.259
293.262
293.265
293.267
293.27
293.273
293.275
293.278
293.281
293.283
293.286
293.289
293.291
293.294
293.296
293.299
293.302
293.304
293.307
293.309
293.312
293.315
293.317
293.32
293.322
293.325
293.327
293.33
293.332
293.335
293.338
293.34
293.343
293.345
293.348
293.35
293.353
293.355
293.358
293.36
293.363
293.365
293.368
293.37
293.373
293.375
293.378
293.38
293.383
293.385
293.388
293.39
293.393
293.395
293.398
293.4
293.403
293.405
293.408
293.41
293.413
293.415
293.418
293.421
293.423
293.426
293.428
293.431
293.433
293.436
293.438
293.44
293.443
293.445
293.448
293.45
293.453
293.455
293.458
293.46
293.462
293.465
293.467
293.47
293.472
293.475
293.477
293.479
293.482
293.484
293.487
293.49
293.492
293.495
293.497
293.5
293.502
293.505
293.507
293.509
293.512
293.514
293.516
293.518
293.52
293.523
293.524
293.526
293.529
293.531
293.532
293.534
293.535
293.536
293.537
293.536
293.534
293.531
293.524
293.513
293.499
293.481
293.459
293.435
293.409
293.382
293.353
293.318
293.274
293.22
293.171
293.147
289.697
289.64
289.583
289.544
289.521
289.511
289.507
289.509
289.513
289.522
289.539
289.565
289.601
289.645
289.694
289.744
289.797
289.854
289.919
289.994
290.073
290.141
290.193
290.232
290.265
290.298
290.331
290.358
290.371
290.369
290.356
290.345
290.336
290.317
290.25
290.11
289.878
289.59
289.283
289.001
288.776
288.611
288.503
288.443
288.417
288.411
288.441
288.494
288.58
288.7
288.846
289.01
289.184
289.355
289.508
289.629
289.709
289.746
289.754
289.708
289.615
289.506
289.395
289.307
289.251
289.234
289.279
289.361
289.549
289.915
290.489
291.204
291.923
292.467
292.754
292.828
292.763
292.614
292.402
292.147
291.885
291.662
291.495
291.386
291.325
291.302
291.3
291.329
291.377
291.431
291.489
291.543
291.591
291.634
291.666
291.685
291.697
291.704
291.716
291.738
291.776
291.826
291.887
291.953
292.016
292.068
292.099
292.111
292.101
292.071
292.02
291.942
291.833
291.692
291.521
291.327
291.119
290.901
290.678
290.452
290.234
290.031
289.849
289.689
289.552
289.437
289.343
289.269
289.213
289.175
289.16
289.163
289.178
289.21
289.262
289.335
289.433
289.557
289.709
289.89
290.096
290.326
290.573
290.825
291.073
291.306
291.513
291.684
291.807
291.866
291.862
291.797
291.657
291.485
291.305
291.117
290.949
290.797
290.653
290.52
290.403
290.303
290.217
290.149
290.098
290.065
290.049
290.045
290.064
290.099
290.145
290.2
290.26
290.323
290.395
290.475
290.558
290.643
290.723
290.795
290.856
290.905
290.94
290.959
290.965
290.948
290.914
290.864
290.799
290.722
290.636
290.545
290.454
290.368
290.286
290.212
290.148
290.095
290.054
290.024
290.002
289.996
290.016
290.059
290.125
290.214
290.319
290.437
290.563
290.695
290.83
290.964
291.096
291.223
291.346
291.463
291.574
291.678
291.775
291.866
291.95
292.028
292.101
292.168
292.23
292.288
292.341
292.39
292.435
292.477
292.516
292.551
292.584
292.614
292.642
292.667
292.69
292.711
292.73
292.748
292.764
292.778
292.791
292.802
292.812
292.822
292.83
292.838
292.845
292.851
292.856
292.862
292.867
292.871
292.875
292.88
292.883
292.887
292.891
292.894
292.898
292.901
292.905
292.908
292.911
292.914
292.917
292.921
292.924
292.927
292.93
292.933
292.936
292.939
292.942
292.944
292.947
292.95
292.953
292.956
292.958
292.961
292.964
292.967
292.969
292.972
292.974
292.977
292.98
292.982
292.985
292.987
292.99
292.992
292.995
292.997
293
293.002
293.005
293.007
293.01
293.012
293.014
293.017
293.019
293.022
293.024
293.027
293.029
293.031
293.034
293.036
293.039
293.041
293.043
293.046
293.048
293.051
293.053
293.055
293.058
293.06
293.063
293.065
293.068
293.07
293.073
293.075
293.078
293.08
293.083
293.085
293.088
293.09
293.093
293.095
293.098
293.101
293.103
293.106
293.108
293.111
293.114
293.116
293.119
293.122
293.124
293.127
293.13
293.132
293.135
293.138
293.14
293.143
293.145
293.148
293.151
293.153
293.156
293.159
293.161
293.164
293.167
293.169
293.172
293.175
293.177
293.18
293.182
293.185
293.188
293.19
293.193
293.195
293.198
293.2
293.203
293.206
293.208
293.211
293.213
293.216
293.218
293.221
293.223
293.226
293.228
293.23
293.233
293.235
293.238
293.24
293.243
293.245
293.247
293.25
293.252
293.255
293.257
293.259
293.262
293.264
293.266
293.269
293.271
293.273
293.276
293.278
293.28
293.283
293.285
293.287
293.29
293.292
293.294
293.297
293.299
293.301
293.304
293.306
293.308
293.311
293.313
293.315
293.318
293.32
293.322
293.325
293.327
293.329
293.331
293.334
293.336
293.338
293.341
293.343
293.345
293.348
293.35
293.352
293.355
293.357
293.359
293.362
293.364
293.366
293.368
293.371
293.373
293.375
293.377
293.38
293.382
293.384
293.386
293.388
293.39
293.393
293.395
293.397
293.4
293.402
293.405
293.407
293.41
293.412
293.415
293.417
293.419
293.421
293.423
293.425
293.427
293.429
293.431
293.433
293.435
293.437
293.439
293.44
293.442
293.443
293.444
293.445
293.446
293.445
293.444
293.442
293.438
293.433
293.425
293.416
293.405
293.393
293.379
293.361
293.336
293.3
293.243
293.185
289.582
289.55
289.519
289.497
289.486
289.483
289.484
289.488
289.49
289.494
289.501
289.516
289.54
289.577
289.622
289.675
289.735
289.805
289.887
289.976
290.056
290.113
290.147
290.172
290.198
290.231
290.264
290.288
290.297
290.292
290.276
290.249
290.196
290.088
289.895
289.623
289.313
289.021
288.795
288.65
288.569
288.529
288.511
288.505
288.544
288.608
288.705
288.837
289.006
289.215
289.472
289.77
290.092
290.421
290.729
290.995
291.198
291.327
291.383
291.389
291.298
291.133
290.906
290.611
290.26
289.881
289.532
289.299
289.204
289.25
289.402
289.815
290.517
291.35
292.029
292.372
292.429
292.33
292.159
291.948
291.732
291.543
291.4
291.305
291.256
291.242
291.25
291.291
291.341
291.388
291.427
291.45
291.454
291.437
291.396
291.346
291.302
291.274
291.265
291.283
291.327
291.395
291.485
291.59
291.702
291.806
291.889
291.941
291.961
291.959
291.938
291.885
291.792
291.656
291.476
291.26
291.014
290.749
290.48
290.216
289.965
289.735
289.527
289.344
289.186
289.052
288.942
288.853
288.782
288.728
288.692
288.676
288.678
288.689
288.712
288.75
288.805
288.88
288.979
289.104
289.261
289.452
289.678
289.936
290.22
290.521
290.827
291.125
291.396
291.617
291.754
291.785
291.745
291.603
291.39
291.165
290.954
290.744
290.547
290.376
290.232
290.118
290.033
289.98
289.957
289.955
289.99
290.045
290.113
290.208
290.327
290.467
290.627
290.804
290.988
291.176
291.361
291.538
291.704
291.856
291.989
292.103
292.193
292.259
292.299
292.314
292.299
292.255
292.181
292.079
291.95
291.796
291.618
291.421
291.208
290.984
290.756
290.532
290.318
290.126
289.962
289.827
289.717
289.634
289.575
289.534
289.517
289.532
289.581
289.66
289.764
289.884
290.019
290.163
290.312
290.462
290.612
290.758
290.901
291.038
291.169
291.293
291.41
291.521
291.625
291.723
291.814
291.9
291.98
292.055
292.124
292.189
292.25
292.306
292.359
292.407
292.452
292.494
292.532
292.567
292.599
292.628
292.654
292.677
292.698
292.717
292.733
292.748
292.761
292.772
292.783
292.792
292.799
292.807
292.813
292.819
292.824
292.829
292.833
292.837
292.841
292.845
292.849
292.852
292.856
292.859
292.863
292.866
292.869
292.872
292.875
292.879
292.882
292.885
292.888
292.891
292.893
292.896
292.899
292.902
292.905
292.907
292.91
292.913
292.915
292.918
292.921
292.923
292.926
292.928
292.931
292.933
292.935
292.938
292.94
292.942
292.945
292.947
292.949
292.951
292.954
292.956
292.958
292.96
292.963
292.965
292.967
292.969
292.971
292.973
292.975
292.978
292.98
292.982
292.984
292.986
292.988
292.99
292.992
292.995
292.997
292.999
293.001
293.003
293.005
293.007
293.01
293.012
293.014
293.016
293.018
293.021
293.023
293.025
293.028
293.03
293.032
293.034
293.037
293.039
293.042
293.044
293.046
293.049
293.051
293.054
293.056
293.059
293.061
293.064
293.066
293.069
293.071
293.074
293.076
293.079
293.081
293.084
293.086
293.089
293.091
293.094
293.096
293.099
293.102
293.104
293.107
293.109
293.112
293.114
293.117
293.119
293.122
293.124
293.127
293.129
293.132
293.134
293.137
293.139
293.142
293.144
293.147
293.149
293.151
293.154
293.156
293.159
293.161
293.163
293.166
293.168
293.17
293.173
293.175
293.177
293.18
293.182
293.184
293.186
293.189
293.191
293.193
293.195
293.198
293.2
293.202
293.204
293.206
293.209
293.211
293.213
293.215
293.217
293.22
293.222
293.224
293.226
293.228
293.23
293.233
293.235
293.237
293.239
293.241
293.243
293.246
293.248
293.25
293.252
293.254
293.256
293.259
293.261
293.263
293.265
293.267
293.269
293.272
293.274
293.276
293.278
293.28
293.282
293.284
293.287
293.289
293.291
293.293
293.295
293.297
293.299
293.301
293.303
293.305
293.307
293.309
293.311
293.313
293.315
293.317
293.32
293.322
293.325
293.327
293.329
293.332
293.334
293.336
293.339
293.341
293.343
293.345
293.347
293.348
293.35
293.352
293.354
293.355
293.357
293.359
293.36
293.361
293.362
293.363
293.364
293.365
293.365
293.364
293.363
293.361
293.358
293.355
293.351
293.346
293.341
293.335
293.322
293.285
293.222
289.53
289.512
289.49
289.472
289.466
289.469
289.476
289.482
289.484
289.484
289.485
289.492
289.508
289.538
289.581
289.637
289.706
289.791
289.886
289.977
290.041
290.073
290.086
290.1
290.126
290.16
290.189
290.205
290.209
290.192
290.153
290.081
289.95
289.741
289.465
289.17
288.923
288.764
288.678
288.637
288.614
288.62
288.662
288.72
288.782
288.85
288.936
289.057
289.234
289.482
289.799
290.187
290.618
291.072
291.516
291.925
292.275
292.545
292.722
292.8
292.81
292.716
292.548
292.305
291.976
291.559
291.054
290.478
289.884
289.393
289.177
289.214
289.449
290.056
290.94
291.719
292.092
292.126
292.002
291.816
291.621
291.452
291.321
291.232
291.185
291.17
291.174
291.207
291.239
291.256
291.256
291.224
291.162
291.081
290.992
290.913
290.857
290.83
290.828
290.859
290.92
291.009
291.122
291.254
291.395
291.531
291.643
291.715
291.741
291.737
291.71
291.648
291.54
291.383
291.18
290.939
290.67
290.388
290.104
289.828
289.57
289.334
289.124
288.941
288.785
288.654
288.546
288.459
288.391
288.339
288.302
288.282
288.282
288.287
288.3
288.324
288.358
288.405
288.466
288.545
288.646
288.773
288.933
289.132
289.373
289.656
289.978
290.331
290.702
291.067
291.389
291.614
291.702
291.675
291.538
291.306
291.044
290.797
290.573
290.379
290.212
290.08
289.995
289.955
289.947
289.972
290.047
290.161
290.32
290.513
290.738
290.987
291.252
291.527
291.803
292.074
292.336
292.583
292.814
293.024
293.213
293.378
293.517
293.63
293.715
293.769
293.794
293.798
293.762
293.696
293.597
293.466
293.301
293.102
292.87
292.608
292.316
292
291.666
291.321
290.973
290.631
290.305
290.003
289.737
289.517
289.346
289.216
289.124
289.064
289.034
289.039
289.081
289.164
289.275
289.402
289.544
289.698
289.858
290.021
290.184
290.344
290.501
290.653
290.799
290.94
291.074
291.202
291.324
291.439
291.548
291.651
291.748
291.84
291.927
292.008
292.084
292.156
292.223
292.285
292.342
292.395
292.443
292.487
292.527
292.563
292.596
292.624
292.649
292.672
292.691
292.708
292.723
292.735
292.746
292.756
292.765
292.772
292.778
292.784
292.79
292.794
292.799
292.803
292.807
292.811
292.815
292.818
292.822
292.825
292.828
292.832
292.835
292.838
292.841
292.844
292.848
292.851
292.854
292.856
292.859
292.862
292.865
292.868
292.87
292.873
292.876
292.878
292.881
292.883
292.886
292.888
292.891
292.893
292.895
292.898
292.9
292.902
292.904
292.906
292.908
292.911
292.913
292.915
292.917
292.919
292.921
292.923
292.925
292.927
292.929
292.93
292.932
292.934
292.936
292.938
292.94
292.942
292.944
292.945
292.947
292.949
292.951
292.953
292.955
292.957
292.959
292.96
292.962
292.964
292.966
292.968
292.97
292.972
292.974
292.976
292.978
292.98
292.982
292.984
292.986
292.989
292.991
292.993
292.995
292.997
293
293.002
293.004
293.006
293.009
293.011
293.013
293.016
293.018
293.021
293.023
293.025
293.028
293.03
293.033
293.035
293.038
293.04
293.043
293.045
293.048
293.05
293.053
293.055
293.057
293.06
293.062
293.065
293.067
293.07
293.072
293.075
293.077
293.08
293.082
293.085
293.087
293.089
293.092
293.094
293.096
293.099
293.101
293.104
293.106
293.108
293.11
293.113
293.115
293.117
293.119
293.122
293.124
293.126
293.128
293.131
293.133
293.135
293.137
293.139
293.141
293.143
293.146
293.148
293.15
293.152
293.154
293.156
293.158
293.16
293.162
293.164
293.166
293.168
293.171
293.173
293.175
293.177
293.179
293.181
293.183
293.185
293.187
293.189
293.191
293.193
293.195
293.197
293.199
293.201
293.203
293.205
293.207
293.209
293.211
293.213
293.215
293.217
293.219
293.221
293.223
293.225
293.228
293.23
293.232
293.234
293.236
293.237
293.239
293.241
293.243
293.245
293.247
293.248
293.25
293.252
293.254
293.256
293.259
293.261
293.264
293.266
293.268
293.271
293.273
293.275
293.277
293.279
293.281
293.283
293.284
293.286
293.288
293.289
293.291
293.292
293.294
293.295
293.296
293.297
293.298
293.299
293.299
293.3
293.3
293.299
293.299
293.298
293.297
293.297
293.298
293.297
293.281
293.235
289.513
289.495
289.468
289.451
289.45
289.46
289.472
289.481
289.482
289.48
289.478
289.481
289.495
289.523
289.568
289.632
289.713
289.808
289.904
289.975
290.006
290.009
290.006
290.017
290.044
290.074
290.096
290.105
290.094
290.052
289.973
289.839
289.639
289.382
289.121
288.917
288.795
288.74
288.716
288.725
288.782
288.847
288.909
288.951
288.972
288.989
289.02
289.102
289.253
289.498
289.827
290.243
290.72
291.232
291.746
292.242
292.706
293.12
293.46
293.7
293.82
293.842
293.762
293.606
293.372
293.044
292.614
292.078
291.435
290.702
289.943
289.342
289.154
289.276
289.764
290.651
291.492
291.878
291.89
291.755
291.568
291.398
291.263
291.164
291.106
291.079
291.07
291.076
291.077
291.055
291.006
290.928
290.828
290.725
290.635
290.568
290.531
290.52
290.541
290.589
290.666
290.77
290.896
291.039
291.192
291.336
291.45
291.518
291.535
291.521
291.474
291.38
291.233
291.035
290.794
290.521
290.23
289.933
289.642
289.368
289.117
288.893
288.698
288.532
288.393
288.279
288.188
288.117
288.062
288.022
287.996
287.985
287.985
287.989
288
288.019
288.045
288.08
288.123
288.176
288.241
288.322
288.422
288.55
288.714
288.922
289.183
289.5
289.873
290.293
290.736
291.152
291.463
291.606
291.591
291.472
291.236
290.949
290.68
290.448
290.257
290.111
290.019
289.984
289.985
290.053
290.188
290.38
290.624
290.906
291.217
291.546
291.883
292.22
292.55
292.868
293.171
293.454
293.716
293.955
294.171
294.364
294.532
294.676
294.796
294.889
294.957
294.998
295.014
295.002
294.961
294.888
294.785
294.647
294.474
294.263