/*--------------------------------*- C++ -*----------------------------------*\
| =========                 |                                                 |
| \\      /  F ield         | OpenFOAM: The Open Source CFD Toolbox           |
|  \\    /   O peration     | Version:  v1812                                 |
|   \\  /    A nd           | Web:      www.OpenFOAM.com                      |
|    \\/     M anipulation  |                                                 |
\*---------------------------------------------------------------------------*/
FoamFile
{
    version     2.0;
    format      ascii;
    class       volVectorField;
    location    "0.6";
    object      U;
}
// * * * * * * * * * * * * * * * * * * * * * * * * * * * * * * * * * * * * * //

dimensions      [0 1 -1 0 0 0 0];


internalField   nonuniform List<vector> 
20400
(
(-0.0451081 -0.00770629 0)
(-0.134684 -0.0474894 0)
(-0.123005 -0.0834876 0)
(-0.0493273 -0.115807 0)
(0.0975571 -0.116059 0)
(0.242502 -0.0982137 0)
(0.369306 -0.0683954 0)
(0.419155 -0.0391235 0)
(0.366833 -0.0116551 0)
(0.223295 0.0115421 0)
(0.0381645 0.0309616 0)
(-0.184198 0.044449 0)
(-0.401931 0.0421116 0)
(-0.606401 0.0289446 0)
(-0.776075 -0.00135226 0)
(-0.883389 -0.0356851 0)
(-0.94972 -0.0829121 0)
(-0.946015 -0.116788 0)
(-0.847625 -0.166765 0)
(-0.705568 -0.212388 0)
(-0.470069 -0.244286 0)
(-0.233216 -0.254934 0)
(0.0679204 -0.227206 0)
(0.330931 -0.196926 0)
(0.58747 -0.16264 0)
(0.71576 -0.126692 0)
(0.776724 -0.101547 0)
(0.747761 -0.057768 0)
(0.689114 -0.087893 0)
(0.641674 -0.17847 0)
(0.571313 -0.253036 0)
(0.470319 -0.280895 0)
(0.429552 -0.153595 0)
(0.483148 -0.109116 0)
(0.386526 -0.0362203 0)
(0.257419 -0.00205695 0)
(-0.0559652 0.0340685 0)
(-0.47689 0.0594975 0)
(-1.17624 0.142923 0)
(-2.14094 0.208402 0)
(-3.45013 0.205517 0)
(-5.02992 0.144638 0)
(-6.80386 0.115865 0)
(-8.68324 0.138038 0)
(-10.5312 0.185909 0)
(-12.3217 0.174008 0)
(-13.8989 0.0825659 0)
(-15.3162 -0.0047487 0)
(-16.5013 -0.0874844 0)
(-17.4549 -0.154291 0)
(-18.1474 -0.20701 0)
(-18.5758 -0.26632 0)
(-18.8452 -0.286823 0)
(-18.886 -0.222275 0)
(-18.5544 -0.218906 0)
(-18.1641 -0.110731 0)
(-17.4834 -0.123019 0)
(-16.7181 -0.101086 0)
(-15.786 -0.0624696 0)
(-14.7538 -0.0129537 0)
(-13.6354 0.0364411 0)
(-12.4584 0.0796909 0)
(-11.2543 0.111776 0)
(-10.044 0.131253 0)
(-8.85139 0.139359 0)
(-7.69094 0.135322 0)
(-6.58564 0.116438 0)
(-5.53535 0.0863791 0)
(-4.57093 0.038041 0)
(-3.67556 -0.00440367 0)
(-2.88586 -0.0795286 0)
(-2.19154 -0.136505 0)
(-1.61341 -0.219807 0)
(-1.18862 -0.278306 0)
(-0.863967 -0.254752 0)
(-0.56451 -0.220676 0)
(-0.335579 -0.180926 0)
(-0.149682 -0.162048 0)
(0.00335687 -0.103295 0)
(0.131671 -0.120664 0)
(0.241301 -0.163059 0)
(0.303138 -0.118996 0)
(0.343151 -0.0903823 0)
(0.296273 -0.0434167 0)
(0.178845 -0.0103363 0)
(-0.0757646 0.0336862 0)
(-0.482662 0.0947026 0)
(-1.10282 0.187696 0)
(-1.90195 0.276711 0)
(-2.88241 0.409016 0)
(-3.98193 0.575202 0)
(-5.16485 0.730047 0)
(-6.37773 0.789929 0)
(-7.57763 0.740387 0)
(-8.71476 0.633421 0)
(-9.79679 0.493395 0)
(-10.6998 0.480265 0)
(-11.4821 0.492406 0)
(-12.0621 0.553754 0)
(-12.419 0.632828 0)
(-12.587 0.785165 0)
(-12.4987 0.968574 0)
(-12.196 1.13416 0)
(-11.6996 1.23892 0)
(-11.0451 1.24305 0)
(-10.287 1.19476 0)
(-9.42683 1.11233 0)
(-8.52082 0.996354 0)
(-7.57045 0.866707 0)
(-6.62949 0.699773 0)
(-5.68981 0.541655 0)
(-4.78568 0.318897 0)
(-3.94244 0.11936 0)
(-3.13971 -0.142372 0)
(-2.56028 -0.359006 0)
(-2.01659 -0.403043 0)
(-1.45307 -0.380842 0)
(-0.935895 -0.339757 0)
(-0.466751 -0.286889 0)
(-0.0713297 -0.233239 0)
(0.272765 -0.173926 0)
(0.574554 -0.123703 0)
(0.810966 -0.0868283 0)
(0.992162 -0.0587438 0)
(1.11389 -0.0378514 0)
(1.18367 -0.0224337 0)
(1.20925 -0.0104282 0)
(1.19591 -0.0010678 0)
(1.14005 0.0153975 0)
(1.04803 0.0288246 0)
(0.924584 0.0440292 0)
(0.764618 0.0578135 0)
(0.579273 0.0744698 0)
(0.360547 0.0955665 0)
(0.122289 0.118631 0)
(-0.132812 0.137379 0)
(-0.400453 0.148329 0)
(-0.675088 0.154647 0)
(-0.950564 0.156487 0)
(-1.21407 0.155977 0)
(-1.47184 0.145831 0)
(-1.68777 0.129036 0)
(-1.89017 0.0725377 0)
(-1.9852 0.009774 0)
(-2.13975 -0.248762 0)
(-2.38538 -0.303637 0)
(-2.49189 -0.30937 0)
(-2.53318 -0.248004 0)
(-2.47202 -0.202793 0)
(-2.37583 -0.142026 0)
(-2.25308 -0.105778 0)
(-2.13 -0.0638391 0)
(-2.0206 0.0154023 0)
(-1.93856 0.0699094 0)
(-1.85799 0.120497 0)
(-1.83791 0.147134 0)
(-1.86878 0.174089 0)
(-1.95204 0.199388 0)
(-2.08354 0.225051 0)
(-2.26196 0.254951 0)
(-2.48299 0.287983 0)
(-2.73911 0.324279 0)
(-3.02671 0.362874 0)
(-3.338 0.402182 0)
(-3.66867 0.439534 0)
(-4.01187 0.471104 0)
(-4.3649 0.491749 0)
(-4.72091 0.496332 0)
(-5.08153 0.479 0)
(-5.44122 0.443261 0)
(-5.79571 0.391844 0)
(-6.14843 0.325157 0)
(-6.47539 0.254141 0)
(-6.79352 0.182328 0)
(-7.08332 0.111285 0)
(-7.34704 0.041429 0)
(-7.57594 -0.00621989 0)
(-7.76788 -0.0545044 0)
(-7.9261 -0.108298 0)
(-8.04413 -0.142751 0)
(-8.12364 -0.158848 0)
(-8.16354 -0.156331 0)
(-8.16075 -0.124861 0)
(-8.11062 -0.076457 0)
(-8.02791 -0.00770177 0)
(-7.90324 0.0898818 0)
(-7.73836 0.207539 0)
(-7.55321 0.316256 0)
(-7.32669 0.44575 0)
(-7.07171 0.551456 0)
(-6.8217 0.596283 0)
(-6.57887 0.601425 0)
(-6.34194 0.590301 0)
(-6.10917 0.571378 0)
(-5.88187 0.548265 0)
(-5.66231 0.522271 0)
(-5.45207 0.494163 0)
(-5.2526 0.464513 0)
(-5.06487 0.433811 0)
(-4.88949 0.402495 0)
(-4.72676 0.370963 0)
(-4.57675 0.339568 0)
(-4.4393 0.308625 0)
(-4.31408 0.278423 0)
(-4.20068 0.249188 0)
(-4.09857 0.221137 0)
(-4.00715 0.194441 0)
(-3.92581 0.169242 0)
(-3.8539 0.145639 0)
(-3.79075 0.1237 0)
(-3.73571 0.103467 0)
(-3.68812 0.0849731 0)
(-3.6474 0.0682044 0)
(-3.61287 0.0531537 0)
(-3.58404 0.0397686 0)
(-3.56022 0.0280189 0)
(-3.54111 0.0178719 0)
(-3.52589 0.00916833 0)
(-3.51425 0.00203868 0)
(-3.50594 -0.00409216 0)
(-3.50043 -0.00896355 0)
(-3.49698 -0.012581 0)
(-3.49522 -0.0158056 0)
(-3.49519 -0.0179094 0)
(-3.49648 -0.019331 0)
(-3.4987 -0.0199975 0)
(-3.50154 -0.0200794 0)
(-3.50493 -0.019685 0)
(-3.50857 -0.0189166 0)
(-3.51236 -0.0177986 0)
(-3.5161 -0.0164197 0)
(-3.51969 -0.014827 0)
(-3.52299 -0.0130977 0)
(-3.52591 -0.0112992 0)
(-3.5284 -0.00948602 0)
(-3.53042 -0.00766205 0)
(-3.53191 -0.00583971 0)
(-3.53279 -0.00408605 0)
(-3.53306 -0.00246344 0)
(-3.53289 -0.000975041 0)
(-3.5322 0.000674135 0)
(-3.53084 0.00224077 0)
(-3.52894 0.0035017 0)
(-3.52656 0.00463915 0)
(-3.52373 0.00565377 0)
(-3.52048 0.00654376 0)
(-3.51686 0.00731693 0)
(-3.51288 0.00796196 0)
(-3.50861 0.00851155 0)
(-3.50408 0.00889678 0)
(-3.49932 0.00926022 0)
(-3.49439 0.0095001 0)
(-3.48929 0.00968936 0)
(-3.4841 0.00979616 0)
(-3.47881 0.00984853 0)
(-3.47347 0.00984772 0)
(-3.46809 0.0098069 0)
(-3.46271 0.00973073 0)
(-3.45734 0.00962922 0)
(-3.45199 0.00950706 0)
(-3.44668 0.00937166 0)
(-3.44142 0.00922713 0)
(-3.43621 0.00907864 0)
(-3.43107 0.00892932 0)
(-3.42599 0.00878243 0)
(-3.42098 0.00864003 0)
(-3.41604 0.00850414 0)
(-3.41117 0.00837567 0)
(-3.40636 0.00825545 0)
(-3.40162 0.00814377 0)
(-3.39694 0.00804074 0)
(-3.39232 0.00794604 0)
(-3.38776 0.00785922 0)
(-3.38325 0.0077797 0)
(-3.37879 0.00770688 0)
(-3.37438 0.00764005 0)
(-3.37001 0.00757852 0)
(-3.36569 0.00752173 0)
(-3.36141 0.0074691 0)
(-3.35717 0.00742005 0)
(-3.35297 0.00737406 0)
(-3.3488 0.00733077 0)
(-3.34468 0.00728988 0)
(-3.34059 0.0072511 0)
(-3.33653 0.0072142 0)
(-3.33251 0.00717899 0)
(-3.32852 0.00714523 0)
(-3.32456 0.00711264 0)
(-3.32064 0.00708103 0)
(-3.31675 0.00705023 0)
(-3.31289 0.00702008 0)
(-3.30906 0.00699045 0)
(-3.30526 0.00696138 0)
(-3.30149 0.00693286 0)
(-3.29776 0.00690484 0)
(-3.29406 0.00687734 0)
(-3.29038 0.00685045 0)
(-3.28674 0.00682429 0)
(-3.28313 0.0067989 0)
(-3.27954 0.00677439 0)
(-3.27599 0.0067508 0)
(-3.27247 0.00672804 0)
(-3.26897 0.00670591 0)
(-3.2655 0.00668417 0)
(-3.26206 0.00666265 0)
(-3.25865 0.00664104 0)
(-3.25526 0.00661926 0)
(-3.2519 0.00659721 0)
(-3.24856 0.00657491 0)
(-3.24525 0.00655238 0)
(-3.24197 0.00652983 0)
(-3.23871 0.00650743 0)
(-3.23548 0.00648527 0)
(-3.23227 0.00646339 0)
(-3.22909 0.00644177 0)
(-3.22593 0.00642032 0)
(-3.2228 0.00639889 0)
(-3.21969 0.00637745 0)
(-3.2166 0.00635596 0)
(-3.21354 0.00633446 0)
(-3.2105 0.0063131 0)
(-3.20748 0.00629197 0)
(-3.20449 0.00627104 0)
(-3.20151 0.00625029 0)
(-3.19856 0.0062297 0)
(-3.19563 0.00620924 0)
(-3.19272 0.00618888 0)
(-3.18983 0.00616862 0)
(-3.18696 0.00614845 0)
(-3.18411 0.00612837 0)
(-3.18128 0.00610838 0)
(-3.17847 0.00608851 0)
(-3.17567 0.00606865 0)
(-3.1729 0.0060488 0)
(-3.17014 0.00602883 0)
(-3.16741 0.00600866 0)
(-3.16468 0.0059883 0)
(-3.16198 0.0059678 0)
(-3.1593 0.00594727 0)
(-3.15663 0.00592686 0)
(-3.15398 0.00590658 0)
(-3.15134 0.00588637 0)
(-3.14872 0.00586617 0)
(-3.14612 0.00584584 0)
(-3.14353 0.00582532 0)
(-3.14096 0.00580466 0)
(-3.1384 0.00578391 0)
(-3.13586 0.00576309 0)
(-3.13334 0.00574223 0)
(-3.13082 0.00572124 0)
(-3.12833 0.00570006 0)
(-3.12584 0.00567867 0)
(-3.12338 0.00565709 0)
(-3.12092 0.00563536 0)
(-3.11848 0.00561352 0)
(-3.11605 0.00559158 0)
(-3.11364 0.00556955 0)
(-3.11124 0.0055474 0)
(-3.10885 0.00552511 0)
(-3.10648 0.0055027 0)
(-3.10412 0.00548013 0)
(-3.10178 0.00545735 0)
(-3.09944 0.00543437 0)
(-3.09712 0.00541119 0)
(-3.09482 0.00538785 0)
(-3.09252 0.00536433 0)
(-3.09024 0.00534059 0)
(-3.08797 0.00531661 0)
(-3.08572 0.0052924 0)
(-3.08347 0.005268 0)
(-3.08124 0.0052434 0)
(-3.07903 0.00521862 0)
(-3.07682 0.00519369 0)
(-3.07463 0.00516865 0)
(-3.07245 0.00514354 0)
(-3.07028 0.00511835 0)
(-3.06813 0.00509304 0)
(-3.06599 0.00506755 0)
(-3.06386 0.00504174 0)
(-3.06175 0.00501552 0)
(-3.05965 0.00498885 0)
(-3.05756 0.0049618 0)
(-3.05548 0.00493453 0)
(-3.05342 0.00490722 0)
(-3.05137 0.00487994 0)
(-3.04933 0.00485265 0)
(-3.0473 0.00482526 0)
(-3.04529 0.00479766 0)
(-3.0433 0.00476983 0)
(-3.04131 0.00474187 0)
(-3.03934 0.00471396 0)
(-3.03739 0.00468626 0)
(-3.03544 0.00465884 0)
(-3.03351 0.00463166 0)
(-3.0316 0.00460453 0)
(-3.02969 0.00457722 0)
(-3.0278 0.00454945 0)
(-3.02592 0.00452106 0)
(-3.02406 0.00449207 0)
(-3.0222 0.00446269 0)
(-3.02037 0.00443324 0)
(-3.01854 0.00440409 0)
(-3.01673 0.0043755 0)
(-3.01494 0.0043475 0)
(-3.01316 0.00431983 0)
(-3.01139 0.00429206 0)
(-3.00964 0.0042637 0)
(-3.00789 0.00423452 0)
(-3.00616 0.00420459 0)
(-3.00445 0.00417424 0)
(-3.00274 0.00414387 0)
(-3.00106 0.00411392 0)
(-2.99939 0.0040847 0)
(-2.99773 0.0040563 0)
(-2.99609 0.00402861 0)
(-2.99446 0.00400123 0)
(-2.99284 0.00397373 0)
(-2.99124 0.00394572 0)
(-2.98964 0.00391712 0)
(-2.98807 0.00388813 0)
(-2.9865 0.00385908 0)
(-2.98495 0.00383037 0)
(-2.98342 0.00380241 0)
(-2.9819 0.00377557 0)
(-2.98039 0.00375006 0)
(-2.9789 0.00372573 0)
(-2.97742 0.00370215 0)
(-2.97596 0.00367868 0)
(-2.9745 0.00365481 0)
(-2.97306 0.00363039 0)
(-2.97163 0.00360568 0)
(-2.97021 0.0035814 0)
(-2.96881 0.00355836 0)
(-2.96742 0.00353735 0)
(-2.96605 0.00351897 0)
(-2.96469 0.00350352 0)
(-2.96334 0.00349091 0)
(-2.96201 0.00348094 0)
(-2.96069 0.00347341 0)
(-2.95938 0.00346797 0)
(-2.95809 0.00346782 0)
(-2.95684 0.00347462 0)
(-2.95564 0.00347731 0)
(-2.95437 0.00337244 0)
(-2.95302 0.00338082 0)
(-2.95174 0.00339642 0)
(-2.95049 0.00341512 0)
(-2.94927 0.00344277 0)
(-2.94805 0.00347863 0)
(-2.94683 0.00351612 0)
(-2.94564 0.00344491 0)
(-2.94445 0.00348762 0)
(-2.94327 0.00356471 0)
(-2.94208 0.00366966 0)
(-2.94091 0.00380009 0)
(-2.93976 0.00395463 0)
(-2.9386 0.00413479 0)
(-2.93744 0.0043369 0)
(-2.93621 0.00455138 0)
(-2.93491 0.00475019 0)
(-2.93365 0.00480911 0)
(-2.93241 0.00502997 0)
(-2.9311 0.00529595 0)
(-2.92972 0.00563505 0)
(-2.9283 0.00602794 0)
(-2.92684 0.00648373 0)
(-2.92537 0.00703118 0)
(-2.92392 0.00773534 0)
(-2.92251 0.00855985 0)
(-2.92094 0.00974001 0)
(-2.91911 0.0108329 0)
(-2.91722 0.0119793 0)
(-2.91534 0.0133366 0)
(-2.91334 0.0149028 0)
(-2.91122 0.0170472 0)
(-2.90876 0.0193131 0)
(-2.90575 0.0216698 0)
(-2.90327 0.0248914 0)
(-2.90146 0.028233 0)
(-2.89912 0.0317854 0)
(-2.89637 0.0359212 0)
(-2.8932 0.0406792 0)
(-2.8898 0.0461672 0)
(-2.88592 0.0524448 0)
(-2.88215 0.0598443 0)
(-2.87842 0.0687166 0)
(-2.87714 0.0804674 0)
(-2.88 0.0968305 0)
(-2.8926 0.12099 0)
(-2.91227 0.155991 0)
(-2.94558 0.204775 0)
(-2.97178 0.267637 0)
(-2.99468 0.335928 0)
(-2.9582 0.401488 0)
(-2.90074 0.453737 0)
(-2.69932 0.451253 0)
(-2.58945 0.44322 0)
(-2.22763 0.401862 0)
(-2.1658 0.364042 0)
(-1.79834 0.259097 0)
(-0.0663807 -0.0047107 0)
(-0.142771 -0.145271 0)
(-0.0152967 -0.313223 0)
(0.257804 -0.468335 0)
(0.642671 -0.512905 0)
(0.998507 -0.457847 0)
(1.3007 -0.337788 0)
(1.48831 -0.183963 0)
(1.52712 -0.0185419 0)
(1.38722 0.129889 0)
(1.13415 0.252169 0)
(0.771063 0.317728 0)
(0.379623 0.316951 0)
(-0.0169625 0.276779 0)
(-0.363607 0.181272 0)
(-0.624009 0.0632581 0)
(-0.787867 -0.0969866 0)
(-0.812811 -0.264016 0)
(-0.68249 -0.447685 0)
(-0.435179 -0.563829 0)
(-0.0524438 -0.654834 0)
(0.393116 -0.689108 0)
(0.903992 -0.636219 0)
(1.33165 -0.534242 0)
(1.74593 -0.381095 0)
(1.99773 -0.218583 0)
(2.18343 -0.0985416 0)
(2.13068 -0.0687118 0)
(1.84669 -0.024656 0)
(1.54471 0.0333538 0)
(1.2244 0.0973457 0)
(0.892112 0.120346 0)
(0.370981 0.197452 0)
(-0.36871 0.241972 0)
(-1.34652 0.412209 0)
(-2.7042 0.699386 0)
(-4.52424 1.10095 0)
(-6.85954 1.42082 0)
(-9.63363 1.80981 0)
(-12.6993 2.25184 0)
(-15.8553 2.70905 0)
(-18.8915 2.98833 0)
(-21.6429 3.01843 0)
(-24.014 2.86631 0)
(-25.975 2.54903 0)
(-27.5427 2.2182 0)
(-28.6376 1.89994 0)
(-29.424 1.61179 0)
(-29.8759 1.3026 0)
(-30.0575 0.98825 0)
(-29.9254 0.667872 0)
(-29.5234 0.436168 0)
(-28.8881 0.199485 0)
(-28.0577 -0.0654971 0)
(-27.1163 -0.422295 0)
(-26.0276 -0.640089 0)
(-24.8062 -0.891563 0)
(-23.4583 -1.03982 0)
(-22.0102 -1.23558 0)
(-20.479 -1.37156 0)
(-18.89 -1.50127 0)
(-17.2574 -1.59296 0)
(-15.6055 -1.65638 0)
(-13.9506 -1.69207 0)
(-12.3121 -1.70259 0)
(-10.7069 -1.68834 0)
(-9.14948 -1.65348 0)
(-7.66514 -1.58945 0)
(-6.25367 -1.51463 0)
(-4.94477 -1.40735 0)
(-3.73732 -1.29851 0)
(-2.64359 -1.15923 0)
(-1.70761 -1.02221 0)
(-0.831279 -0.873699 0)
(-0.138683 -0.699353 0)
(0.383948 -0.530714 0)
(0.715811 -0.408524 0)
(0.928887 -0.334875 0)
(0.950485 -0.318528 0)
(0.726433 -0.259641 0)
(0.553555 -0.110566 0)
(0.223957 0.0169499 0)
(-0.31692 0.15005 0)
(-1.08896 0.32947 0)
(-2.14287 0.552797 0)
(-3.47642 0.831942 0)
(-5.04293 1.07181 0)
(-6.80746 1.27253 0)
(-8.68367 1.42195 0)
(-10.5938 1.47298 0)
(-12.4346 1.43056 0)
(-14.1337 1.35056 0)
(-15.6536 1.26382 0)
(-16.9188 1.2055 0)
(-17.9068 1.13275 0)
(-18.6213 1.03157 0)
(-19.0581 0.859009 0)
(-19.2611 0.68428 0)
(-19.1083 0.423653 0)
(-18.7389 0.201284 0)
(-18.2065 -0.0624802 0)
(-17.5882 -0.343172 0)
(-16.8109 -0.625326 0)
(-15.9086 -0.92422 0)
(-14.8462 -1.11333 0)
(-13.6854 -1.2848 0)
(-12.4248 -1.40687 0)
(-11.1033 -1.49312 0)
(-9.7542 -1.53957 0)
(-8.39329 -1.56119 0)
(-7.0616 -1.54991 0)
(-5.76414 -1.53534 0)
(-4.5109 -1.49849 0)
(-3.31681 -1.46856 0)
(-2.04238 -1.43359 0)
(-0.84265 -1.36813 0)
(0.20058 -1.25035 0)
(1.14222 -1.11669 0)
(1.99395 -0.983823 0)
(2.76871 -0.856368 0)
(3.46373 -0.713537 0)
(4.05967 -0.578343 0)
(4.58067 -0.458887 0)
(5.02337 -0.346864 0)
(5.38503 -0.243193 0)
(5.66586 -0.148289 0)
(5.86123 -0.0701934 0)
(5.98393 -0.00841493 0)
(5.99342 0.0801872 0)
(5.90906 0.143612 0)
(5.74609 0.214573 0)
(5.48909 0.291686 0)
(5.14466 0.370551 0)
(4.7175 0.456305 0)
(4.21081 0.538154 0)
(3.63248 0.605129 0)
(2.99989 0.649847 0)
(2.32549 0.674877 0)
(1.62441 0.682893 0)
(0.907451 0.679696 0)
(0.197761 0.656233 0)
(-0.516656 0.629846 0)
(-1.19235 0.570956 0)
(-1.89881 0.527819 0)
(-2.40691 0.3675 0)
(-2.721 0.255524 0)
(-3.00275 0.110565 0)
(-3.19534 0.0139198 0)
(-3.32731 -0.0861153 0)
(-3.4062 -0.136142 0)
(-3.44326 -0.166461 0)
(-3.43554 -0.171344 0)
(-3.49416 -0.191021 0)
(-3.71359 -0.193913 0)
(-3.9479 -0.171226 0)
(-4.29357 -0.127407 0)
(-4.67338 -0.0629246 0)
(-5.12197 -0.00120501 0)
(-5.62169 0.06429 0)
(-6.1653 0.117226 0)
(-6.74629 0.162958 0)
(-7.35035 0.194973 0)
(-7.97071 0.216788 0)
(-8.59779 0.227478 0)
(-9.22599 0.230492 0)
(-9.84815 0.228388 0)
(-10.4576 0.225957 0)
(-11.0462 0.226781 0)
(-11.6039 0.236512 0)
(-12.1169 0.251811 0)
(-12.5873 0.266629 0)
(-13.0036 0.281203 0)
(-13.3606 0.289075 0)
(-13.6608 0.291719 0)
(-13.8975 0.288258 0)
(-14.0775 0.276363 0)
(-14.2053 0.24359 0)
(-14.2729 0.218866 0)
(-14.2659 0.192683 0)
(-14.1738 0.167726 0)
(-14.0369 0.12471 0)
(-13.84 0.0830887 0)
(-13.5912 0.0382764 0)
(-13.299 -0.00901893 0)
(-12.9665 -0.0589159 0)
(-12.5876 -0.112214 0)
(-12.2255 -0.181406 0)
(-11.8405 -0.232991 0)
(-11.4216 -0.300355 0)
(-11.1016 -0.371354 0)
(-10.7954 -0.410162 0)
(-10.4389 -0.422223 0)
(-10.0721 -0.42296 0)
(-9.70839 -0.416255 0)
(-9.35553 -0.404786 0)
(-9.01812 -0.389637 0)
(-8.6982 -0.371787 0)
(-8.39744 -0.351967 0)
(-8.11685 -0.330784 0)
(-7.85698 -0.308805 0)
(-7.61802 -0.286487 0)
(-7.39985 -0.264211 0)
(-7.20206 -0.24231 0)
(-7.02405 -0.221002 0)
(-6.86504 -0.20048 0)
(-6.72413 -0.180884 0)
(-6.60033 -0.162312 0)
(-6.49257 -0.144812 0)
(-6.39976 -0.128439 0)
(-6.32079 -0.113207 0)
(-6.25453 -0.0991117 0)
(-6.19989 -0.0861059 0)
(-6.15579 -0.0742188 0)
(-6.12114 -0.0633828 0)
(-6.09506 -0.0536071 0)
(-6.07638 -0.0447412 0)
(-6.06454 -0.0369248 0)
(-6.05803 -0.0301147 0)
(-6.05678 -0.023969 0)
(-6.06043 -0.0185498 0)
(-6.06706 -0.0141066 0)
(-6.07662 -0.010789 0)
(-6.08827 -0.00758157 0)
(-6.10183 -0.00518038 0)
(-6.11659 -0.00336501 0)
(-6.13224 -0.0018922 0)
(-6.14836 -0.000895117 0)
(-6.16467 -0.000274206 0)
(-6.18088 -9.71671e-06 0)
(-6.19676 -4.00868e-05 0)
(-6.21211 -0.000326568 0)
(-6.22677 -0.000826266 0)
(-6.2406 -0.00150868 0)
(-6.25353 -0.00232337 0)
(-6.2655 -0.0031988 0)
(-6.27649 -0.00413423 0)
(-6.28644 -0.00522812 0)
(-6.29534 -0.0063179 0)
(-6.30318 -0.00728003 0)
(-6.30999 -0.00809176 0)
(-6.31577 -0.00908477 0)
(-6.32064 -0.010155 0)
(-6.3247 -0.0110138 0)
(-6.32798 -0.0118139 0)
(-6.33056 -0.0125412 0)
(-6.33249 -0.0131976 0)
(-6.33385 -0.013775 0)
(-6.33468 -0.014286 0)
(-6.33513 -0.0146958 0)
(-6.33513 -0.0150438 0)
(-6.33476 -0.0153343 0)
(-6.33419 -0.0155522 0)
(-6.33334 -0.015708 0)
(-6.33237 -0.0158047 0)
(-6.33123 -0.015852 0)
(-6.33001 -0.0158532 0)
(-6.32872 -0.0158157 0)
(-6.3274 -0.0157443 0)
(-6.32606 -0.0156453 0)
(-6.32472 -0.0155234 0)
(-6.32341 -0.0153838 0)
(-6.32212 -0.0152308 0)
(-6.32088 -0.0150685 0)
(-6.31968 -0.0149007 0)
(-6.31853 -0.0147301 0)
(-6.31743 -0.0145595 0)
(-6.31638 -0.0143908 0)
(-6.31537 -0.014226 0)
(-6.31441 -0.0140662 0)
(-6.31349 -0.0139121 0)
(-6.31261 -0.0137644 0)
(-6.31176 -0.0136234 0)
(-6.31094 -0.0134891 0)
(-6.31015 -0.013361 0)
(-6.30938 -0.0132389 0)
(-6.30862 -0.0131225 0)
(-6.30789 -0.013011 0)
(-6.30716 -0.012904 0)
(-6.30645 -0.0128012 0)
(-6.30574 -0.0127023 0)
(-6.30505 -0.0126065 0)
(-6.30435 -0.0125133 0)
(-6.30367 -0.0124226 0)
(-6.30298 -0.0123342 0)
(-6.3023 -0.012248 0)
(-6.30162 -0.0121636 0)
(-6.30094 -0.0120811 0)
(-6.30027 -0.0120001 0)
(-6.29959 -0.0119204 0)
(-6.29891 -0.0118419 0)
(-6.29824 -0.0117644 0)
(-6.29756 -0.0116877 0)
(-6.29688 -0.0116116 0)
(-6.29621 -0.0115362 0)
(-6.29553 -0.0114617 0)
(-6.29485 -0.0113877 0)
(-6.29418 -0.0113143 0)
(-6.2935 -0.0112415 0)
(-6.29282 -0.0111695 0)
(-6.29214 -0.0110983 0)
(-6.29146 -0.0110282 0)
(-6.29078 -0.0109594 0)
(-6.29009 -0.010892 0)
(-6.28941 -0.0108254 0)
(-6.28872 -0.0107597 0)
(-6.28803 -0.0106945 0)
(-6.28733 -0.0106296 0)
(-6.28664 -0.0105649 0)
(-6.28594 -0.0105003 0)
(-6.28523 -0.0104358 0)
(-6.28453 -0.0103711 0)
(-6.28382 -0.0103067 0)
(-6.28312 -0.0102429 0)
(-6.2824 -0.0101796 0)
(-6.28169 -0.010117 0)
(-6.28097 -0.0100551 0)
(-6.28025 -0.0099937 0)
(-6.27953 -0.0099325 0)
(-6.2788 -0.00987157 0)
(-6.27807 -0.00981073 0)
(-6.27734 -0.00974999 0)
(-6.2766 -0.00968975 0)
(-6.27585 -0.00963006 0)
(-6.27511 -0.00957077 0)
(-6.27436 -0.00951187 0)
(-6.2736 -0.00945338 0)
(-6.27284 -0.0093952 0)
(-6.27208 -0.00933734 0)
(-6.2713 -0.00927984 0)
(-6.27053 -0.00922262 0)
(-6.26975 -0.00916568 0)
(-6.26896 -0.00910918 0)
(-6.26817 -0.00905304 0)
(-6.26737 -0.00899728 0)
(-6.26656 -0.0089419 0)
(-6.26575 -0.00888663 0)
(-6.26493 -0.0088313 0)
(-6.26411 -0.00877591 0)
(-6.26328 -0.00872046 0)
(-6.26244 -0.00866519 0)
(-6.26159 -0.0086104 0)
(-6.26074 -0.00855607 0)
(-6.25989 -0.00850219 0)
(-6.25902 -0.0084486 0)
(-6.25815 -0.00839501 0)
(-6.25727 -0.00834142 0)
(-6.25638 -0.00828791 0)
(-6.25549 -0.00823451 0)
(-6.25459 -0.00818134 0)
(-6.25368 -0.00812846 0)
(-6.25277 -0.00807575 0)
(-6.25185 -0.00802307 0)
(-6.25092 -0.00797033 0)
(-6.24998 -0.0079176 0)
(-6.24904 -0.00786502 0)
(-6.24808 -0.0078126 0)
(-6.24713 -0.00776032 0)
(-6.24616 -0.00770814 0)
(-6.24519 -0.00765604 0)
(-6.24421 -0.0076041 0)
(-6.24322 -0.00755233 0)
(-6.24223 -0.0075006 0)
(-6.24123 -0.00744885 0)
(-6.24023 -0.00739707 0)
(-6.23921 -0.00734538 0)
(-6.23819 -0.00729385 0)
(-6.23717 -0.00724239 0)
(-6.23614 -0.00719093 0)
(-6.2351 -0.00713944 0)
(-6.23406 -0.00708799 0)
(-6.23301 -0.00703657 0)
(-6.23195 -0.00698511 0)
(-6.2309 -0.00693363 0)
(-6.22983 -0.0068822 0)
(-6.22876 -0.0068309 0)
(-6.22769 -0.00677976 0)
(-6.22661 -0.00672885 0)
(-6.22553 -0.00667822 0)
(-6.22444 -0.00662776 0)
(-6.22335 -0.00657726 0)
(-6.22225 -0.00652651 0)
(-6.22115 -0.00647534 0)
(-6.22005 -0.00642387 0)
(-6.21894 -0.00637242 0)
(-6.21783 -0.00632125 0)
(-6.21672 -0.00627047 0)
(-6.21561 -0.00622 0)
(-6.21449 -0.00616961 0)
(-6.21337 -0.00611907 0)
(-6.21225 -0.00606827 0)
(-6.21112 -0.00601736 0)
(-6.21 -0.00596662 0)
(-6.20887 -0.00591634 0)
(-6.20774 -0.00586666 0)
(-6.20661 -0.00581759 0)
(-6.20548 -0.005769 0)
(-6.20434 -0.00572057 0)
(-6.20321 -0.00567191 0)
(-6.20207 -0.00562266 0)
(-6.20093 -0.00557273 0)
(-6.1998 -0.0055223 0)
(-6.19866 -0.00547181 0)
(-6.19752 -0.00542176 0)
(-6.19639 -0.00537267 0)
(-6.19525 -0.00532477 0)
(-6.19411 -0.00527781 0)
(-6.19297 -0.00523111 0)
(-6.19183 -0.00518384 0)
(-6.1907 -0.00513564 0)
(-6.18956 -0.00508657 0)
(-6.18842 -0.00503694 0)
(-6.18729 -0.00498721 0)
(-6.18616 -0.00493795 0)
(-6.18503 -0.00488965 0)
(-6.1839 -0.00484257 0)
(-6.18277 -0.00479676 0)
(-6.18164 -0.00475169 0)
(-6.18051 -0.00470655 0)
(-6.17939 -0.00466071 0)
(-6.17826 -0.00461411 0)
(-6.17714 -0.00456703 0)
(-6.17601 -0.00451971 0)
(-6.17489 -0.00447238 0)
(-6.17378 -0.00442552 0)
(-6.17266 -0.00437986 0)
(-6.17154 -0.00433594 0)
(-6.17043 -0.00429374 0)
(-6.16931 -0.0042527 0)
(-6.16819 -0.00421192 0)
(-6.16708 -0.00417046 0)
(-6.16596 -0.00412771 0)
(-6.16484 -0.0040839 0)
(-6.16373 -0.00403972 0)
(-6.16261 -0.00399595 0)
(-6.16149 -0.00395347 0)
(-6.16038 -0.00391319 0)
(-6.15925 -0.00387554 0)
(-6.15813 -0.00383993 0)
(-6.157 -0.00380522 0)
(-6.15587 -0.00377325 0)
(-6.15472 -0.00373269 0)
(-6.1536 -0.00367244 0)
(-6.15265 -0.00356558 0)
(-6.15147 -0.00325794 0)
(-6.15008 -0.00314647 0)
(-6.14887 -0.00307147 0)
(-6.14766 -0.00303126 0)
(-6.14645 -0.00298051 0)
(-6.14522 -0.00292177 0)
(-6.14411 -0.00285616 0)
(-6.14281 -0.00265432 0)
(-6.14133 -0.00254856 0)
(-6.13995 -0.00245798 0)
(-6.13851 -0.00239319 0)
(-6.13704 -0.00234557 0)
(-6.1355 -0.00230261 0)
(-6.13389 -0.00226315 0)
(-6.13221 -0.00222178 0)
(-6.13041 -0.00218196 0)
(-6.12866 -0.00217397 0)
(-6.12657 -0.00201831 0)
(-6.12419 -0.00198428 0)
(-6.12179 -0.00188923 0)
(-6.11917 -0.00183682 0)
(-6.1164 -0.00179405 0)
(-6.1134 -0.00176983 0)
(-6.11011 -0.00178114 0)
(-6.10658 -0.00186971 0)
(-6.10245 -0.00188063 0)
(-6.09833 -0.00206477 0)
(-6.09406 -0.00213488 0)
(-6.0889 -0.0023071 0)
(-6.08327 -0.00273994 0)
(-6.07608 -0.00323798 0)
(-6.06912 -0.00429102 0)
(-6.06205 -0.00543192 0)
(-6.05147 -0.0069208 0)
(-6.04187 -0.00968119 0)
(-6.03297 -0.0117663 0)
(-6.02108 -0.0132977 0)
(-6.00751 -0.0148652 0)
(-5.99211 -0.0166026 0)
(-5.97475 -0.0185384 0)
(-5.95501 -0.0205921 0)
(-5.93287 -0.0224637 0)
(-5.90756 -0.0235887 0)
(-5.8794 -0.022969 0)
(-5.84654 -0.0199781 0)
(-5.80967 -0.0145068 0)
(-5.76277 -0.0109107 0)
(-5.70583 -0.0151618 0)
(-5.62179 -0.0379206 0)
(-5.51886 -0.0880188 0)
(-5.35073 -0.156332 0)
(-5.16862 -0.252733 0)
(-4.85446 -0.330538 0)
(-4.60233 -0.409351 0)
(-4.10332 -0.385809 0)
(-3.88797 -0.35148 0)
(-3.36219 -0.324545 0)
(-0.0571629 -0.0494122 0)
(-0.0224817 -0.331328 0)
(0.239451 -0.668692 0)
(0.628077 -0.939125 0)
(1.1317 -1.03043 0)
(1.57396 -0.93817 0)
(1.94912 -0.719899 0)
(2.17891 -0.409144 0)
(2.29966 -0.115543 0)
(2.24803 0.143766 0)
(2.02446 0.320013 0)
(1.69069 0.432631 0)
(1.29555 0.455978 0)
(0.871942 0.401888 0)
(0.459165 0.269887 0)
(0.109282 0.0786322 0)
(-0.162024 -0.140226 0)
(-0.270506 -0.349965 0)
(-0.163738 -0.593285 0)
(0.0597303 -0.852984 0)
(0.399337 -1.06229 0)
(0.825961 -1.20836 0)
(1.31015 -1.2322 0)
(1.73552 -1.15373 0)
(2.08609 -0.932496 0)
(2.25118 -0.642452 0)
(2.24718 -0.293348 0)
(2.15122 -0.0145941 0)
(1.93873 0.301221 0)
(1.48704 0.522062 0)
(0.764749 0.702227 0)
(-0.210973 0.85414 0)
(-1.50432 1.07575 0)
(-3.17495 1.54786 0)
(-5.38692 2.22316 0)
(-8.17953 2.90934 0)
(-11.4476 3.69118 0)
(-14.9994 4.51781 0)
(-18.5943 5.14681 0)
(-21.9359 5.42749 0)
(-24.8482 5.35196 0)
(-27.2159 5.02649 0)
(-29.0186 4.56583 0)
(-30.339 4.07063 0)
(-31.1924 3.52004 0)
(-31.7205 2.92717 0)
(-31.9784 2.31986 0)
(-32.0921 1.73387 0)
(-32.0673 1.16767 0)
(-31.8181 0.603017 0)
(-31.3968 0.0519239 0)
(-30.8283 -0.503841 0)
(-30.1125 -1.03548 0)
(-29.2255 -1.52722 0)
(-28.1736 -2.04519 0)
(-26.9502 -2.4774 0)
(-25.594 -2.93 0)
(-24.1042 -3.28639 0)
(-22.5295 -3.60534 0)
(-20.8885 -3.81973 0)
(-19.2156 -3.97444 0)
(-17.5273 -4.0491 0)
(-15.8429 -4.06186 0)
(-14.1746 -4.02018 0)
(-12.5322 -3.93244 0)
(-10.926 -3.80646 0)
(-9.35874 -3.64786 0)
(-7.83777 -3.45961 0)
(-6.37475 -3.24887 0)
(-4.98394 -3.01462 0)
(-3.68934 -2.74583 0)
(-2.49523 -2.44454 0)
(-1.4326 -2.10104 0)
(-0.524762 -1.73621 0)
(0.233261 -1.37403 0)
(0.790538 -1.01666 0)
(1.13778 -0.67934 0)
(1.25055 -0.397435 0)
(1.17906 -0.177591 0)
(0.96962 0.14482 0)
(0.412682 0.493509 0)
(-0.509534 0.782581 0)
(-1.67371 1.12651 0)
(-3.17895 1.52842 0)
(-4.93772 1.96819 0)
(-6.90913 2.36509 0)
(-8.94844 2.73292 0)
(-10.9476 3.0539 0)
(-12.7714 3.23015 0)
(-14.365 3.28929 0)
(-15.7088 3.21211 0)
(-16.8105 3.03253 0)
(-17.6802 2.75162 0)
(-18.3484 2.38561 0)
(-18.8513 1.97992 0)
(-19.2192 1.55152 0)
(-19.413 1.10027 0)
(-19.4223 0.624519 0)
(-19.261 0.0417489 0)
(-18.9235 -0.573287 0)
(-18.2782 -1.18213 0)
(-17.4142 -1.8137 0)
(-16.3248 -2.37454 0)
(-15.1456 -2.83258 0)
(-13.8467 -3.15494 0)
(-12.4595 -3.40714 0)
(-11.0059 -3.56858 0)
(-9.52105 -3.64647 0)
(-8.02163 -3.65149 0)
(-6.54241 -3.58552 0)
(-5.08129 -3.47117 0)
(-3.67467 -3.29571 0)
(-2.31014 -3.08576 0)
(-1.01643 -2.80666 0)
(0.191436 -2.49511 0)
(1.32086 -2.20955 0)
(2.38517 -2.00137 0)
(3.39329 -1.81203 0)
(4.33907 -1.6284 0)
(5.21745 -1.44893 0)
(6.0336 -1.29006 0)
(6.78517 -1.13113 0)
(7.47297 -0.971142 0)
(8.09522 -0.808836 0)
(8.65087 -0.644386 0)
(9.13778 -0.482181 0)
(9.55866 -0.332129 0)
(9.88619 -0.137344 0)
(10.1505 0.0109222 0)
(10.3176 0.174538 0)
(10.3917 0.342555 0)
(10.346 0.509344 0)
(10.1911 0.662368 0)
(9.92773 0.804091 0)
(9.54789 0.927282 0)
(9.04642 1.03741 0)
(8.42262 1.13591 0)
(7.67938 1.21863 0)
(6.82701 1.27858 0)
(5.88088 1.31311 0)
(4.8653 1.32939 0)
(3.80674 1.32156 0)
(2.73733 1.3081 0)
(1.70361 1.22025 0)
(0.701545 1.15501 0)
(-0.201422 0.962216 0)
(-0.982135 0.705475 0)
(-1.62116 0.440339 0)
(-2.12298 0.219748 0)
(-2.53836 0.0896018 0)
(-2.8818 0.0216197 0)
(-3.27038 0.0665543 0)
(-3.63985 0.146411 0)
(-3.96423 0.299136 0)
(-4.41412 0.436232 0)
(-4.93072 0.567107 0)
(-5.54459 0.683112 0)
(-6.21966 0.787338 0)
(-6.92792 0.880114 0)
(-7.65682 0.955023 0)
(-8.38173 1.01464 0)
(-9.09532 1.0558 0)
(-9.78546 1.08448 0)
(-10.4455 1.10118 0)
(-11.0692 1.10699 0)
(-11.6518 1.10134 0)
(-12.1917 1.08372 0)
(-12.6832 1.05133 0)
(-13.1316 1.00352 0)
(-13.5418 0.945491 0)
(-13.904 0.873885 0)
(-14.224 0.792425 0)
(-14.4863 0.696569 0)
(-14.6885 0.592855 0)
(-14.8381 0.488828 0)
(-14.9335 0.390428 0)
(-14.9645 0.285308 0)
(-14.9219 0.16829 0)
(-14.8214 0.0415022 0)
(-14.6583 -0.08573 0)
(-14.4502 -0.201408 0)
(-14.1899 -0.313828 0)
(-13.8892 -0.423789 0)
(-13.5465 -0.528588 0)
(-13.1716 -0.629175 0)
(-12.7822 -0.726957 0)
(-12.3346 -0.831261 0)
(-11.8712 -0.912588 0)
(-11.4176 -1.00712 0)
(-10.8798 -1.09469 0)
(-10.3233 -1.13202 0)
(-9.82374 -1.13652 0)
(-9.35375 -1.12141 0)
(-8.90681 -1.09231 0)
(-8.48203 -1.05343 0)
(-8.08045 -1.00693 0)
(-7.70386 -0.954738 0)
(-7.35352 -0.898396 0)
(-7.03024 -0.839281 0)
(-6.73432 -0.778633 0)
(-6.46566 -0.717534 0)
(-6.22383 -0.65684 0)
(-6.00806 -0.597345 0)
(-5.81737 -0.539577 0)
(-5.65061 -0.484043 0)
(-5.50645 -0.431109 0)
(-5.38346 -0.381082 0)
(-5.28013 -0.334154 0)
(-5.1949 -0.290499 0)
(-5.12621 -0.250174 0)
(-5.07249 -0.213211 0)
(-5.03224 -0.179547 0)
(-5.0039 -0.149192 0)
(-4.98607 -0.121845 0)
(-4.97738 -0.0974109 0)
(-4.97694 -0.0754866 0)
(-4.98377 -0.0564372 0)
(-4.99648 -0.0399593 0)
(-5.0137 -0.0262148 0)
(-5.03445 -0.0145361 0)
(-5.05776 -0.00508938 0)
(-5.08346 0.00313938 0)
(-5.11106 0.0100847 0)
(-5.13954 0.014858 0)
(-5.1688 0.0183471 0)
(-5.19818 0.0206446 0)
(-5.22735 0.0219686 0)
(-5.25602 0.0223576 0)
(-5.2839 0.021997 0)
(-5.3108 0.0209502 0)
(-5.33651 0.019364 0)
(-5.36091 0.0173236 0)
(-5.38392 0.0149977 0)
(-5.40555 0.012538 0)
(-5.42584 0.0100006 0)
(-5.44476 0.00728762 0)
(-5.46233 0.00445487 0)
(-5.47853 0.00149274 0)
(-5.49333 -0.00154563 0)
(-5.5066 -0.00464966 0)
(-5.51862 -0.00744753 0)
(-5.52974 -0.00973128 0)
(-5.53997 -0.0118018 0)
(-5.54937 -0.0137301 0)
(-5.55801 -0.0154762 0)
(-5.56598 -0.0170327 0)
(-5.57336 -0.0183994 0)
(-5.58023 -0.0195611 0)
(-5.58666 -0.0205564 0)
(-5.59272 -0.0213093 0)
(-5.59849 -0.0219702 0)
(-5.60401 -0.0224304 0)
(-5.60934 -0.0227815 0)
(-5.61454 -0.0229856 0)
(-5.61962 -0.0230832 0)
(-5.62464 -0.0230786 0)
(-5.62961 -0.0229927 0)
(-5.63456 -0.022836 0)
(-5.63951 -0.0226238 0)
(-5.64447 -0.0223669 0)
(-5.64945 -0.022077 0)
(-5.65446 -0.0217631 0)
(-5.6595 -0.0214344 0)