/*--------------------------------*- C++ -*----------------------------------*\
| =========                 |                                                 |
| \\      /  F ield         | OpenFOAM: The Open Source CFD Toolbox           |
|  \\    /   O peration     | Version:  v1812                                 |
|   \\  /    A nd           | Web:      www.OpenFOAM.com                      |
|    \\/     M anipulation  |                                                 |
\*---------------------------------------------------------------------------*/
FoamFile
{
    version     2.0;
    format      ascii;
    class       volScalarField;
    location    "0.9";
    object      p;
}
// * * * * * * * * * * * * * * * * * * * * * * * * * * * * * * * * * * * * * //

dimensions      [1 -1 -2 0 0 0 0];


internalField   nonuniform List<scalar> 
20400
(
99614
99614
99613.8
99613.6
99613
99612.2
99611.2
99609.9
99608.6
99607.1
99605.8
99604.4
99603.1
99601.8
99600.6
99599.6
99598.4
99597.4
99596.2
99595
99593.6
99592.2
99590.1
99587.8
99584.9
99581.7
99578.3
99574.8
99571.6
99568.2
99564.7
99561
99556.5
99551.7
99546.1
99537.2
99527.5
99514.8
99500.7
99483.1
99464.8
99445.8
99427.5
99411.4
99396.9
99387
99379.2
99376.6
99379
99386.4
99399
99418.2
99442.5
99473
99509.8
99552.8
99597.1
99646.2
99696.3
99748.5
99799.9
99850.3
99898
99942.5
99983
100019
100051
100078
100101
100120
100133
100145
100151
100158
100162
100165
100167
100168
100167
100166
100164
100162
100158
100155
100152
100149
100146
100143
100142
100140
100138
100136
100132
100124
100116
100097
100082
100064
100043
100018
99991.8
99960
99930.4
99901.8
99876.8
99855.6
99841.5
99830.4
99829.2
99837.6
99852.3
99875.7
99907.6
99942.9
99983.4
100025
100066
100106
100143
100174
100203
100222
100240
100254
100265
100274
100278
100279
100277
100274
100269
100263
100257
100250
100244
100238
100232
100227
100222
100217
100213
100209
100205
100202
100198
100195
100192
100189
100185
100182
100177
100173
100168
100163
100158
100153
100148
100143
100138
100133
100128
100123
100118
100113
100108
100103
100099
100094
100089
100085
100081
100077
100073
100070
100068
100067
100067
100068
100071
100076
100083
100091
100102
100114
100128
100146
100164
100183
100203
100222
100242
100260
100278
100294
100309
100323
100335
100346
100356
100364
100372
100381
100383
100387
100391
100395
100399
100403
100406
100408
100411
100413
100415
100417
100418
100419
100419
100420
100420
100421
100421
100420
100420
100419
100418
100418
100417
100417
100418
100419
100420
100422
100425
100428
100431
100435
100438
100441
100444
100446
100448
100450
100451
100451
100451
100450
100448
100445
100442
100438
100434
100429
100424
100419
100414
100409
100404
100399
100395
100392
100389
100387
100387
100387
100389
100392
100397
100403
100410
100419
100430
100441
100454
100467
100482
100496
100512
100527
100543
100558
100573
100588
100602
100615
100627
100638
100648
100658
100667
100676
100684
100692
100699
100705
100711
100717
100722
100726
100730
100733
100736
100738
100739
100740
100741
100741
100741
100740
100739
100738
100737
100736
100735
100734
100734
100734
100734
100734
100736
100737
100739
100742
100744
100748
100751
100755
100759
100763
100768
100772
100777
100781
100786
100791
100796
100800
100805
100810
100815
100819
100824
100828
100833
100837
100841
100845
100849
100853
100857
100861
100865
100868
100872
100875
100879
100882
100886
100889
100893
100896
100899
100903
100906
100909
100912
100915
100919
100922
100925
100928
100931
100935
100938
100941
100944
100947
100950
100953
100957
100960
100963
100966
100969
100972
100975
100978
100982
100985
100988
100991
100994
100997
101000
101003
101006
101009
101012
101015
101019
101022
101025
101028
101031
101034
101037
101040
101043
101046
101049
101052
101055
101058
101061
101064
101067
101070
101073
101076
101079
101082
101085
101088
101091
101094
101096
101099
101102
101105
101108
101111
101114
101117
101120
101123
101126
101129
101132
101135
101138
101141
101144
101147
101149
101152
101155
101158
101161
101164
101167
101170
101173
101176
101179
101182
101184
101187
101190
101193
101196
101199
101202
101205
101208
101211
101213
101216
101219
101222
101225
101228
101231
101234
101237
101239
101242
101245
101248
101251
101254
101257
101260
101263
101266
101269
101271
101274
101277
101280
101283
101286
101289
101293
101296
101300
101304
101308
101311
101316
101317
101324
99614.2
99614.2
99613.9
99613.5
99612.8
99611.9
99610.8
99609.4
99608.2
99606.5
99605.3
99604
99602.8
99601.7
99600.6
99599.6
99598.5
99597.6
99596.5
99595.3
99594
99592.1
99590.2
99588
99585.4
99582.5
99579.1
99575.7
99571.7
99568.7
99566.9
99564.8
99561.4
99556.7
99549.4
99541.3
99530.4
99517.4
99501.6
99484.2
99465.3
99445.8
99426.1
99407.4
99388.6
99375.4
99366.3
99364.7
99369.4
99378.9
99395.2
99418.1
99446.1
99480.5
99516.6
99555.7
99596.8
99641.2
99687.3
99735.5
99784.3
99832.9
99880
99924.2
99965
100002
100035
100063
100088
100108
100125
100138
100150
100158
100163
100166
100167
100167
100167
100165
100164
100161
100159
100155
100153
100149
100146
100144
100142
100140
100139
100137
100132
100126
100118
100109
100095
100071
100046
100018
99985.8
99954.7
99922.3
99891.8
99864.4
99842.1
99827.6
99819
99821.6
99833.9
99850.3
99872.7
99898.2
99928.8
99964.6
100004
100045
100085
100123
100159
100189
100219
100241
100257
100268
100273
100276
100277
100276
100272
100268
100262
100256
100250
100243
100238
100232
100227
100223
100218
100214
100211
100207
100203
100199
100195
100192
100189
100186
100182
100179
100175
100171
100165
100160
100153
100147
100141
100135
100130
100125
100120
100116
100111
100107
100103
100098
100094
100089
100085
100080
100076
100072
100068
100065
100062
100061
100063
100066
100072
100080
100090
100105
100119
100136
100153
100170
100187
100203
100220
100237
100253
100269
100283
100297
100310
100322
100334
100344
100354
100362
100368
100379
100386
100392
100396
100400
100403
100406
100409
100411
100414
100416
100417
100419
100420
100423
100424
100425
100425
100426
100426
100425
100425
100424
100424
100423
100423
100423
100423
100424
100425
100426
100428
100430
100432
100435
100439
100442
100447
100449
100451
100452
100453
100452
100451
100450
100447
100444
100441
100436
100432
100427
100422
100416
100411
100406
100400
100395
100391
100387
100385
100383
100384
100387
100391
100396
100403
100414
100423
100435
100447
100461
100475
100490
100504
100519
100532
100546
100559
100572
100581
100593
100604
100616
100627
100638
100648
100658
100667
100676
100684
100692
100699
100706
100712
100717
100722
100727
100731
100735
100737
100740
100742
100743
100744
100744
100744
100744
100743
100742
100741
100740
100740
100739
100739
100739
100739
100740
100741
100743
100745
100747
100750
100753
100757
100760
100764
100768
100772
100776
100781
100785
100790
100795
100799
100804
100809
100813
100818
100822
100827
100831
100836
100840
100844
100848
100852
100856
100860
100864
100868
100871
100875
100878
100882
100885
100889
100892
100896
100899
100902
100906
100909
100912
100915
100919
100922
100925
100928
100931
100934
100938
100941
100944
100947
100950
100953
100957
100960
100963
100966
100969
100972
100975
100978
100982
100985
100988
100991
100994
100997
101000
101003
101006
101009
101012
101015
101018
101021
101025
101028
101031
101034
101037
101040
101043
101046
101049
101052
101055
101058
101061
101064
101067
101070
101073
101076
101079
101082
101085
101088
101091
101093
101096
101099
101102
101105
101108
101111
101114
101117
101120
101123
101126
101129
101132
101135
101138
101141
101144
101146
101149
101152
101155
101158
101161
101164
101167
101170
101173
101176
101179
101181
101184
101187
101190
101193
101196
101199
101202
101205
101208
101210
101213
101216
101219
101222
101225
101228
101231
101234
101237
101239
101242
101245
101248
101251
101254
101257
101260
101262
101265
101268
101271
101274
101277
101280
101283
101286
101288
101291
101294
101297
101300
101304
101306
101311
101312
101321
99614.5
99614.5
99614.3
99613.9
99613.2
99612.4
99611.3
99610.1
99608.9
99607.6
99606.2
99604.8
99603.4
99602.2
99601
99600
99598.9
99597.9
99596.7
99595.2
99593.5
99591.6
99589.2
99586.2
99582.8
99579.2
99575.6
99572.8
99570.6
99568.5
99565.2
99562.5
99559.2
99555.5
99550.3
99542.5
99531.8
99518
99500.5
99479.3
99454.7
99428.6
99404.9
99384.6
99370
99364.4
99358.5
99355
99355.6
99361.3
99373.1
99390.8
99414.5
99443.2
99479
99520.8
99568
99619.7
99673.2
99727.1
99779.9
99831.1
99880
99926.3
99968.7
100007
100040
100069
100093
100113
100128
100140
100149
100155
100159
100162
100164
100165
100165
100164
100162
100160
100158
100155
100153
100148
100146
100144
100142
100141
100140
100138
100135
100131
100122
100108
100093
100072
100047
100015
99980.3
99944.3
99910.3
99880.3
99854.2
99834.7
99821.2
99810
99806.1
99809.6
99821.3
99846.2
99880.1
99919
99960
100002
100045
100086
100125
100159
100189
100214
100233
100249
100260
100268
100272
100273
100272
100269
100264
100259
100253
100247
100241
100235
100229
100224
100220
100216
100212
100209
100205
100202
100198
100195
100192
100189
100186
100182
100177
100173
100168
100163
100158
100154
100150
100145
100140
100135
100130
100125
100119
100114
100109
100104
100100
100095
100090
100086
100081
100077
100074
100071
100069
100068
100068
100069
100071
100074
100079
100085
100094
100105
100118
100135
100153
100174
100194
100216
100236
100256
100274
100292
100307
100322
100334
100345
100356
100363
100371
100377
100382
100387
100392
100396
100400
100403
100406
100409
100412
100414
100416
100417
100419
100420
100420
100421
100421
100421
100421
100420
100419
100419
100418
100417
100416
100416
100416
100417
100418
100420
100423
100426
100430
100434
100438
100441
100444
100445
100448
100450
100451
100451
100451
100450
100448
100446
100443
100439
100434
100429
100424
100418
100413
100407
100402
100397
100393
100390
100388
100387
100387
100387
100388
100390
100394
100398
100405
100413
100423
100433
100446
100459
100473
100489
100505
100521
100537
100554
100569
100586
100601
100615
100627
100638
100649
100659
100668
100676
100685
100692
100699
100706
100712
100717
100722
100727
100731
100734
100736
100739
100740
100741
100742
100742
100742
100741
100740
100738
100737
100735
100734
100733
100732
100732
100732
100733
100734
100735
100738
100740
100743
100746
100750
100754
100758
100763
100767
100772
100776
100781
100786
100791
100796
100801
100805
100810
100815
100819
100824
100828
100833
100837
100841
100845
100849
100853
100857
100861
100865
100868
100872
100876
100879
100883
100886
100889
100893
100896
100899
100903
100906
100909
100912
100916
100919
100922
100925
100928
100931
100935
100938
100941
100944
100947
100950
100954
100957
100960
100963
100966
100969
100972
100975
100979
100982
100985
100988
100991
100994
100997
101000
101003
101006
101009
101012
101015
101019
101022
101025
101028
101031
101034
101037
101040
101043
101046
101049
101052
101055
101058
101061
101064
101067
101070
101073
101076
101079
101082
101085
101088
101091
101094
101096
101099
101102
101105
101108
101111
101114
101117
101120
101123
101126
101129
101132
101135
101138
101141
101144
101147
101149
101152
101155
101158
101161
101164
101167
101170
101173
101176
101179
101182
101184
101187
101190
101193
101196
101199
101202
101205
101208
101211
101213
101216
101219
101222
101225
101228
101231
101234
101237
101239
101242
101245
101248
101251
101254
101257
101260
101263
101266
101269
101271
101274
101277
101280
101283
101286
101290
101293
101296
101300
101303
101308
101311
101316
101317
101324
99615
99615
99614.7
99614.2
99613.3
99612.1
99610.7
99609.1
99607.6
99606.1
99604.9
99603.7
99602.7
99601.7
99600.7
99599.7
99598.6
99597.5
99596.4
99595.5
99594.1
99592.4
99590.4
99587.7
99584.8
99581.3
99577.7
99573.7
99570.1
99567.4
99566.2
99565.6
99563.9
99560.2
99553.2
99543.3
99528.5
99508.9
99484.3
99457.8
99432.6
99409.6
99388.2
99368.1
99349.1
99331.5
99317.8
99317.7
99326.3
99338.4
99357.6
99380.7
99408.5
99440.4
99476.5
99516.5
99560.4
99607.1
99656.8
99708.2
99760.5
99812.4
99862.6
99910.1
99953.8
99993.2
100028
100058
100083
100104
100121
100134
100144
100152
100157
100160
100162
100162
100162
100161
100160
100158
100156
100153
100151
100149
100146
100143
100142
100142
100142
100141
100138
100134
100127
100115
100096
100069
100036
99999.6
99961.3
99923.1
99885.6
99851.2
99819.7
99795.6
99776.8
99771
99775.8
99787.1
99805.2
99828.1
99857.2
99892
99931.9
99975.2
100020
100063
100105
100142
100175
100204
100226
100243
100255
100262
100266
100267
100265
100262
100258
100252
100247
100241
100234
100229
100223
100219
100214
100210
100207
100203
100201
100198
100195
100192
100190
100188
100185
100182
100179
100175
100171
100165
100160
100153
100147
100141
100135
100130
100125
100120
100116
100112
100108
100103
100099
100095
100090
100085
100080
100075
100070
100066
100061
100058
100055
100054
100056
100061
100069
100080
100093
100107
100123
100140
100158
100176
100194
100213
100231
100249
100267
100283
100298
100312
100324
100336
100347
100356
100365
100373
100380
100386
100391
100395
100399
100403
100406
100409
100411
100414
100416
100417
100419
100421
100422
100423
100424
100425
100425
100425
100424
100423
100423
100422
100421
100420
100419
100419
100420
100421
100423
100425
100428
100431
100435
100439
100443
100447
100450
100453
100454
100456
100456
100456
100454
100452
100449
100445
100440
100435
100430
100424
100418
100412
100405
100399
100394
100388
100383
100379
100377
100376
100378
100382
100388
100396
100405
100415
100427
100439
100453
100467
100482
100497
100512
100527
100541
100555
100568
100581
100594
100606
100618
100629
100640
100650
100660
100669
100678
100686
100694
100701
100708
100714
100720
100725
100729
100734
100737
100739
100742
100743
100744
100745
100745
100745
100744
100743
100741
100740
100738
100737
100736
100736
100735
100736
100737
100738
100740
100742
100745
100748
100751
100755
100759
100763
100767
100771
100776
100781
100785
100790
100795
100800
100804
100809
100814
100818
100823
100827
100832
100836
100840
100845
100849
100853
100857
100861
100864
100868
100872
100875
100879
100882
100886
100889
100892
100896
100899
100902
100906
100909
100912
100915
100919
100922
100925
100928
100931
100934
100938
100941
100944
100947
100950
100953
100957
100960
100963
100966
100969
100972
100975
100978
100982
100985
100988
100991
100994
100997
101000
101003
101006
101009
101012
101015
101018
101021
101025
101028
101031
101034
101037
101040
101043
101046
101049
101052
101055
101058
101061
101064
101067
101070
101073
101076
101079
101082
101085
101088
101091
101093
101096
101099
101102
101105
101108
101111
101114
101117
101120
101123
101126
101129
101132
101135
101138
101141
101144
101146
101149
101152
101155
101158
101161
101164
101167
101170
101173
101176
101179
101181
101184
101187
101190
101193
101196
101199
101202
101205
101208
101211
101213
101216
101219
101222
101225
101228
101231
101234
101237
101239
101242
101245
101248
101251
101254
101257
101260
101262
101265
101268
101271
101274
101277
101280
101283
101286
101288
101291
101294
101297
101300
101303
101307
101312
101315
101321
99615.7
99615.7
99615.4
99614.8
99613.9
99612.7
99611.5
99610.1
99608.8
99607.4
99606
99604.6
99603.3
99602.2
99601.2
99600.3
99599.5
99598.7
99597.7
99596.4
99594.9
99592.9
99590.6
99587.4
99583.7
99579.1
99575
99571.1
99568.4
99566.7
99565.6
99564.4
99562.1
99557.7
99549.6
99535
99514.9
99490.5
99464.9
99437
99407.6
99377.5
99349.7
99327
99311.6
99302.1
99294.9
99292.3
99297
99306.4
99322.3
99343.3
99370.2
99402
99440.2
99482.9
99530.5
99581.4
99635
99690
99745.5
99800
99852.5
99901.7
99946.9
99987.6
100023
100054
100079
100100
100117
100130
100139
100146
100151
100155
100157
100158
100158
100157
100156
100155
100153
100151
100148
100145
100143
100143
100141
100143
100143
100143
100141
100137
100129
100113
100090
100058
100022
99980.6
99938.3
99896.6
99857.5
99823.7
99794.2
99771.9
99755.1
99744.5
99744.6
99753.6
99771.3
99797.9
99832.2
99871.7
99915.1
99960.7
100007
100052
100094
100131
100164
100191
100212
100229
100241
100250
100254
100257
100256
100253
100248
100243
100237
100231
100225
100219
100213
100208
100204
100200
100197
100194
100192
100190
100188
100187
100185
100184
100182
100179
100176
100172
100168
100163
100157
100152
100147
100142
100136
100131
100126
100121
100116
100112
100107
100102
100098
100093
100088
100083
100078
100073
100068
100064
100060
100057
100054
100053
100054
100057
100062
100069
100079
100092
100108
100125
100145
100165
100187
100208
100228
100248
100266
100283
100299
100313
100326
100338
100348
100357
100365
100372
100379
100384
100389
100394
100398
100402
100405
100408
100410
100412
100415
100416
100418
100419
100420
100421
100421
100422
100422
100421
100420
100419
100418
100417
100416
100415
100415
100416
100417
100419
100421
100425
100428
100433
100437
100441
100445
100448
100451
100454
100455
100456
100456
100455
100454
100451
100447
100443
100438
100432
100426
100419
100412
100405
100399
100393
100387
100383
100380
100377
100375
100375
100375
100377
100381
100386
100394
100403
100414
100426
100440
100455
100470
100486
100503
100519
100535
100551
100567
100582
100596
100609
100621
100632
100643
100653
100662
100671
100680
100688
100695
100702
100709
100715
100720
100725
100730
100734
100737
100740
100741
100743
100744
100744
100743
100742
100741
100739
100738
100736
100734
100732
100731
100731
100731
100731
100732
100734
100736
100739
100742
100746
100749
100753
100758
100762
100767
100771
100776
100781
100786
100790
100795
100800
100805
100810
100815
100819
100824
100828
100833
100837
100841
100845
100849
100853
100857
100861
100865
100868
100872
100876
100879
100883
100886
100889
100893
100896
100899
100903
100906
100909
100912
100916
100919
100922
100925
100928
100931
100935
100938
100941
100944
100947
100950
100953
100957
100960
100963
100966
100969
100972
100975
100978
100982
100985
100988
100991
100994
100997
101000
101003
101006
101009
101012
101015
101018
101022
101025
101028
101031
101034
101037
101040
101043
101046
101049
101052
101055
101058
101061
101064
101067
101070
101073
101076
101079
101082
101085
101088
101091
101094
101096
101099
101102
101105
101108
101111
101114
101117
101120
101123
101126
101129
101132
101135
101138
101141
101144
101147
101149
101152
101155
101158
101161
101164
101167
101170
101173
101176
101179
101182
101184
101187
101190
101193
101196
101199
101202
101205
101208
101211
101213
101216
101219
101222
101225
101228
101231
101234
101237
101239
101242
101245
101248
101251
101254
101257
101260
101263
101266
101268
101271
101274
101277
101280
101283
101286
101289
101292
101295
101299
101302
101306
101310
101314
101318
101323
99616.7
99616.6
99616.2
99615.3
99614.4
99612.8
99611.3
99609.5
99607.9
99606.2
99604.8
99603.6
99602.5
99601.6
99600.7
99599.9
99599.2
99598.4
99597.7
99596.7
99595.7
99594
99592.1
99588.7
99585.7
99581.1
99577.2
99573.2
99570.5
99568.6
99567.9
99566.8
99563.5
99556.2
99542.2
99524
99500.7
99473
99441.3
99408.1
99376.1
99346.7
99320.3
99296.5
99277.9
99265
99260.1
99263.4
99271.5
99285.8
99304.7
99328.5
99356.8
99388.7
99424.8
99464.7
99508.6
99556.6
99608.4
99662.9
99719.2
99775.3
99829.9
99881.5
99929.1
99971.9
100009
100042
100069
100091
100109
100122
100133
100141
100146
100150
100152
100153
100153
100153
100152
100151
100149
100147
100145
100144
100142
100141
100141
100141
100142
100142
100141
100136
100126
100106
100078
100041
99999
99954.3
99909
99864.5
99822.4
99785
99752.8
99729.8
99714.3
99708.1
99711.7
99722.4
99741.3
99766.4
99799.1
99837.6
99881.4
99928.5
99976.9
100025
100069
100110
100145
100174
100198
100215
100228
100237
100241
100243
100243
100240
100236
100230
100225
100218
100212
100206
100200
100195
100191
100187
100184
100181
100179
100178
100176
100176
100176
100176
100176
100175
100173
100171
100167
100162
100157
100151
100144
100138
100132
100127
100122
100117
100112
100108
100103
100099
100095
100090
100085
100080
100074
100068
100062
100056
100050
100046
100043
100042
100043
100047
100055
100064
100076
100090
100106
100124
100143
100162
100182
100202
100222
100241
100259
100276
100292
100306
100320
100332
100342
100352
100361
100369
100376
100382
100387
100392
100396
100400
100403
100406
100408
100411
100413
100415
100416
100418
100419
100420
100420
100421
100421
100421
100420
100419
100418
100417
100416
100416
100415
100416
100417
100418
100421
100424
100427
100431
100435
100440
100444
100449
100453
100456
100458
100460
100461
100460
100458
100455
100451
100446
100441
100434
100427
100420
100413
100405
100398
100391
100384
100378
100373
100369
100366
100366
100368
100371
100376
100383
100391
100401
100413
100426
100440
100454
100470
100486
100502
100518
100534
100549
100563
100577
100590
100603
100615
100627
100638
100648
100657
100667
100675
100684
100692
100699
100706
100712
100718
100723
100728
100732
100736
100738
100741
100742
100743
100743
100743
100742
100741
100740
100738
100736
100734
100733
100732
100731
100731
100732
100733
100735
100737
100740
100743
100746
100750
100753
100758
100762
100766
100771
100776
100781
100785
100790
100795
100800
100805
100810
100814
100819
100824
100828
100833
100837
100841
100845
100849
100853
100857
100861
100865
100868
100872
100876
100879
100883
100886
100889
100893
100896
100899
100903
100906
100909
100912
100915
100919
100922
100925
100928
100931
100935
100938
100941
100944
100947
100950
100953
100957
100960
100963
100966
100969
100972
100975
100978
100982
100985
100988
100991
100994
100997
101000
101003
101006
101009
101012
101015
101018
101022
101025
101028
101031
101034
101037
101040
101043
101046
101049
101052
101055
101058
101061
101064
101067
101070
101073
101076
101079
101082
101085
101088
101091
101093
101096
101099
101102
101105
101108
101111
101114
101117
101120
101123
101126
101129
101132
101135
101138
101141
101144
101146
101149
101152
101155
101158
101161
101164
101167
101170
101173
101176
101179
101182
101184
101187
101190
101193
101196
101199
101202
101205
101208
101211
101213
101216
101219
101222
101225
101228
101231
101234
101237
101239
101242
101245
101248
101251
101254
101257
101260
101263
101265
101268
101271
101274
101277
101280
101283
101286
101289
101292
101295
101298
101301
101305
101309
101313
101318
101322
99618
99617.9
99617.4
99616.5
99615.4
99613.7
99612.2
99610.3
99608.6
99606.9
99605.4
99604
99602.8
99601.7
99600.8
99600
99599.4
99598.8
99598.2
99597.4
99596.3
99594.8
99592.7
99589.7
99586.5
99582.2
99578.5
99575.2
99573.1
99572.4
99571.8
99569
99562.9
99552.8
99537.1
99513.5
99484.2
99451.1
99415.9
99380.1
99344.4
99311.5
99283.6
99261.1
99246.1
99235.7
99231.6
99234.5
99242.2
99255.9
99274.4
99297.6
99325.5
99357.5
99394
99434.7
99479.9
99529
99582.2
99638.2
99696.4
99754.8
99811.9
99865.8
99915.6
99960.2
99999.4
100033
100061
100083
100101
100115
100126
100134
100139
100143
100146
100147
100148
100148
100148
100147
100145
100144
100142
100140
100139
100138
100138
100138
100139
100139
100137
100131
100118
100094
100061
100021
99976
99928.2
99880.3
99834.4
99792.2
99755.7
99724.4
99701.8
99685.7
99678.1
99680.7
99691.3
99711
99738
99772.8
99813.2
99858.3
99906.3
99955.5
100004
100049
100090
100125
100154
100178
100196
100210
100219
100224
100227
100227
100224
100220
100215
100209
100203
100196
100190
100184
100179
100174
100170
100167
100164
100163
100162
100162
100162
100162
100163
100164
100165
100164
100162
100160
100156
100151
100146
100141
100136
100130
100125
100120
100115
100110
100106
100101
100096
100092
100087
100082
100076
100071
100065
100059
100053
100048
100044
100040
100039
100039
100042
100047
100055
100066
100080
100096
100114
100134
100155
100176
100197
100218
100238
100256
100274
100290
100304
100318
100330
100340
100350
100359
100366
100373
100379
100384
100389
100393
100397
100400
100403
100406
100408
100410
100412
100413
100414
100416
100416
100417
100417
100418
100417
100417
100416
100415
100414
100414
100413
100413
100414
100416
100418
100420
100424
100428
100432
100437
100442
100446
100450
100454
100457
100459
100461
100461
100460
100458
100455
100451
100445
100439
100432
100424
100416
100408
100400
100393
100386
100380
100374
100369
100366
100363
100361
100362
100364
100367
100373
100381
100391
100402
100415
100430
100445
100462
100479
100496
100513
100529
100546
100561
100576
100589
100602
100614
100626
100637
100647
100656
100665
100674
100682
100690
100697
100704
100710
100716
100721
100726
100730
100733
100736
100738
100740
100741
100741
100741
100740
100738
100737
100735
100733
100732
100730
100729
100729
100729
100730
100731
100733
100735
100738
100742
100745
100749
100753
100757
100762
100766
100771
100776
100781
100786
100791
100795
100800
100805
100810
100815
100819
100824
100829
100833
100837
100841
100846
100850
100854
100857
100861
100865
100869
100872
100876
100879
100883
100886
100889
100893
100896
100899
100903
100906
100909
100912
100915
100919
100922
100925
100928
100931
100935
100938
100941
100944
100947
100950
100953
100957
100960
100963
100966
100969
100972
100975
100978
100982
100985
100988
100991
100994
100997
101000
101003
101006
101009
101012
101015
101018
101022
101025
101028
101031
101034
101037
101040
101043
101046
101049
101052
101055
101058
101061
101064
101067
101070
101073
101076
101079
101082
101085
101088
101091
101094
101096
101099
101102
101105
101108
101111
101114
101117
101120
101123
101126
101129
101132
101135
101138
101141
101144
101147
101149
101152
101155
101158
101161
101164
101167
101170
101173
101176
101179
101182
101184
101187
101190
101193
101196
101199
101202
101205
101208
101211
101213
101216
101219
101222
101225
101228
101231
101234
101237
101239
101242
101245
101248
101251
101254
101257
101260
101263
101266
101269
101271
101274
101277
101280
101283
101286
101289
101293
101296
101299
101303
101306
101310
101314
101319
101322
99619.8
99619.3
99619
99617.4
99616.5
99614.3
99612.7
99610.5
99608.7
99606.7
99605
99603.5
99602.1
99600.9
99600
99599.2
99598.6
99598.1
99597.8
99597.4
99597
99596.2
99595
99593
99590.9
99588.2
99586
99584.3
99583.5
99582.3
99580.1
99577.1
99569.4
99554
99532.2
99504.2
99470.3
99433.4
99394
99355.2
99318.1
99284.9
99256.6
99233.4
99218.4
99208.1
99206
99211.5
99221.1
99237.2
99257.5
99282
99310
99341
99375.3
99413
99454.9
99501.1
99552.3
99607.7
99666.6
99726.8
99786.4
99843
99895.5
99942.6
99984
100019
100049
100073
100092
100107
100118
100126
100132
100137
100140
100141
100142
100143
100143
100142
100141
100140
100139
100137
100136
100136
100135
100136
100136
100135
100131
100123
100106
100080
100042
99998.5
99950
99899.7
99849.7
99801.9
99758.3
99721
99689.9
99668.3
99653.5
99647.6
99651.3
99662.1
99681.7
99707.8
99741.8
99781.7
99826.9
99875.7
99926.3
99976.6
100024
100066
100103
100134
100158
100177
100190
100200
100205
100208
100208
100205
100201
100196
100190
100184
100177
100171
100165
100159
100154
100150
100147
100145
100143
100142
100143
100144
100145
100147
100149
100151
100152
100153
100152
100150
100147
100142
100137
100131
100125
100119
100114
100109
100104
100099
100095
100090
100086
100081
100076
100071
100065
100059
100053
100047
100041
100037
100033
100032
100034
100037
100043
100052
100064
100078
100094
100112
100131
100151
100172
100192
100212
100231
100250
100267
100283
100298
100311
100324
100335
100345
100354
100362
100369
100375
100380
100385
100390
100393
100397
100400
100402
100405
100406
100408
100410
100411
100412
100413
100413
100414
100414
100414
100414
100414
100413
100412
100412
100412
100413
100414
100415
100417
100420
100424
100428
100432
100437
100442
100446
100451
100455
100458
100461
100462
100463
100462
100459
100456
100451
100446
100439
100432
100424
100416
100407
100399
100391
100383
100375
100369
100363
100359
100356
100355
100356
100358
100363
100369
100377
100387
100399
100412
100427
100443
100459
100476
100492
100509
100525
100541
100556
100571
100584
100597
100609
100621
100631
100641
100651
100660
100669
100677
100685
100692
100699
100706
100712
100717
100722
100726
100730
100732
100735
100736
100737
100738
100738
100737
100736
100735
100733
100732
100731
100730
100729
100729
100729
100730
100731
100733
100736
100739
100742
100745
100749
100753
100758
100762
100767
100771
100776
100781
100786
100791
100796
100801
100805
100810
100815
100820
100824
100829
100833
100837
100842
100846
100850
100854
100858
100861
100865
100869
100872
100876
100879
100883
100886
100889
100893
100896
100899
100903
100906
100909
100912
100915
100919
100922
100925
100928
100931
100934
100938
100941
100944
100947
100950
100953
100957
100960
100963
100966
100969
100972
100975
100978
100982
100985
100988
100991
100994
100997
101000
101003
101006
101009
101012
101015
101018
101022
101025
101028
101031
101034
101037
101040
101043
101046
101049
101052
101055
101058
101061
101064
101067
101070
101073
101076
101079
101082
101085
101088
101091
101094
101096
101099
101102
101105
101108
101111
101114
101117
101120
101123
101126
101129
101132
101135
101138
101141
101144
101147
101149
101152
101155
101158
101161
101164
101167
101170
101173
101176
101179
101182
101184
101187
101190
101193
101196
101199
101202
101205
101208
101211
101213
101216
101219
101222
101225
101228
101231
101234
101237
101240
101242
101245
101248
101251
101254
101257
101260
101263
101266
101269
101272
101275
101277
101280
101283
101286
101290
101293
101296
101299
101303
101307
101310
101314
101319
101322
99621.7
99621.5
99620.8
99619.4
99618.1
99616
99614.1
99611.8
99609.7
99607.5
99605.6
99603.7
99602.1
99600.7
99599.6
99598.7
99598
99597.5
99597.2
99597
99597
99596.6
99596
99595.3
99594.5
99593.9
99594
99593.9
99594.3
99595.9
99595.8
99588.3
99576
99556.7
99531.2
99498.7
99460.4
99419.5
99375.5
99333.3
99293.7
99259.4
99231.1
99208.6
99194.3
99184.2
99182.6
99188.8
99199
99216.1
99237.2
99262.5
99291.1
99322.3
99356.4
99393.1
99433.4
99477.8
99527.4
99582
99641.2
99702.7
99764.5
99823.3
99877.9
99927
99970.2
100007
100038
100062
100082
100097
100109
100118
100124
100129
100133
100135
100136
100137
100137
100137
100137