/*--------------------------------*- C++ -*----------------------------------*\
| =========                 |                                                 |
| \\      /  F ield         | OpenFOAM: The Open Source CFD Toolbox           |
|  \\    /   O peration     | Version:  v1812                                 |
|   \\  /    A nd           | Web:      www.OpenFOAM.com                      |
|    \\/     M anipulation  |                                                 |
\*---------------------------------------------------------------------------*/
FoamFile
{
    version     2.0;
    format      ascii;
    class       surfaceScalarField;
    location    "0.9";
    object      phi;
}
// * * * * * * * * * * * * * * * * * * * * * * * * * * * * * * * * * * * * * //

dimensions      [1 0 -1 0 0 0 0];
oriented        oriented;


internalField   nonuniform List<scalar> 
40240
(
-0.000145085
-8.488e-05
-0.000155792
-0.000219241
-8.81712e-05
-0.0002974
6.12465e-05
-0.000379108
0.000256441
-0.000424648
0.000442565
-0.000415362
0.000586393
-0.000372785
0.000645601
-0.000287814
0.000637996
-0.000220691
0.000535108
-0.000124966
0.000377388
-6.97401e-05
0.000168209
-1.78003e-05
-5.11271e-05
-7.18665e-06
-0.00026493
-1.21258e-05
-0.000440701
-4.95621e-05
-0.000572184
-9.32504e-05
-0.000631928
-0.000164324
-0.000617668
-0.000237701
-0.000503287
-0.000337091
-0.000304438
-0.000420868
-1.66256e-05
-0.000509074
0.000394127
-0.000631348
0.000916328
-0.000741976
0.00150048
-0.00080314
0.00209419
-0.0008119
0.00262602
-0.000749234
0.00301581
-0.00060643
0.00324756
-0.000447622
0.00329891
-0.000266529
0.00331069
-0.00022618
0.00322323
-0.000126225
0.00305283
-4.25316e-05
0.00287337
-3.27531e-05
0.00277617
-0.000114189
0.00285958
-0.000294418
0.0026654
-1.63572e-05
0.00195601
0.000499218
0.00083063
0.000915392
-0.000846674
0.00146732
-0.00324348
0.00218698
-0.00651711
0.00306402
-0.0105622
0.00383595
-0.0152338
0.0044632
-0.0202803
0.00483878
-0.0254566
0.00496972
-0.0305021
0.00483993
-0.0352776
0.00457067
-0.0396353
0.00415413
-0.0435028
0.00366545
-0.0467885
0.00308471
-0.0494726
0.00248441
-0.0514601
0.00178944
-0.052927
0.00127057
-0.0535957
0.000473666
-0.053676
-0.000112523
-0.053011
-0.000857235
-0.0517964
-0.00140504
-0.050006
-0.00197998
-0.0477236
-0.00247098
-0.0449278
-0.00298378
-0.0417988
-0.00331652
-0.0384114
-0.00357462
-0.0348716
-0.00372684
-0.0312488
-0.00380975
-0.0276032
-0.00383273
-0.0240012
-0.00378924
-0.0204978
-0.00369097
-0.0171459
-0.00353963
-0.0139737
-0.00336019
-0.0110265
-0.00313535
-0.00829931
-0.00291526
-0.00588501
-0.00260222
-0.0041435
-0.00192813
-0.00241153
-0.00191845
-0.000780819
-0.00181693
0.000681796
-0.00164835
0.00200896
-0.00151217
0.0030782
-0.0012531
0.00387683
-0.000980821
0.00440947
-0.000712717
0.00470636
-0.000474322
0.00477062
-0.000238338
0.00470961
-0.00010985
0.00448096
6.13332e-05
0.00419444
0.000122943
0.00387955
0.000155233
0.00365124
7.24787e-05
0.00360141
-0.000102115
0.00380018
-0.000346485
0.00429952
-0.00064274
0.00507714
-0.000917209
0.00605959
-0.00111813
0.00708246
-0.00115534
0.008174
-0.00122354
0.00863323
-0.000589703
0.0083877
0.000107478
0.00774004
0.000509612
0.00685872
0.000741254
0.00489591
0.00182646
0.00224362
0.00251511
-0.00104703
0.00315428
-0.00517103
0.00398998
-0.00991759
0.00461405
-0.0149409
0.0048936
-0.0199258
0.00485673
-0.024597
0.0045465
-0.028779
0.00405863
-0.0322997
0.00340051
-0.0350926
0.00267538
-0.036813
0.00160585
-0.0376312
0.000706051
-0.0377131
-2.67861e-05
-0.0367374
-0.00108341
-0.0350019
-0.00184006
-0.0325127
-0.00259309
-0.0295378
-0.00307725
-0.0261577
-0.00348228
-0.0225106
-0.00374862
-0.0187072
-0.00390507
-0.0148385
-0.00397047
-0.0110734
-0.00386747
-0.00814627
-0.00302984
-0.00509879
-0.00315058
-0.00212518
-0.00307777
0.000618322
-0.00284882
0.00330747
-0.00279558
0.00563659
-0.00243733
0.0075137
-0.00198591
0.0089512
-0.00154662
0.00995459
-0.00111249
0.0105695
-0.000723364
0.010807
-0.000344362
0.0107988
-9.67023e-05
0.0104974
0.00019908
0.00988226
0.000515236
0.00907437
0.000711018
0.00810997
0.000871549
0.00705301
0.000967769
0.00595134
0.00101534
0.00485617
0.00101143
0.00379571
0.000979288
0.00277751
0.000939098
0.00180868
0.000890972
0.000915816
0.000815336
0.000168883
0.000669703
-0.000416809
0.000508456
-0.000865324
0.000371288
-0.00122751
0.00028497
-0.00143563
0.000130938
-0.00157009
5.75365e-05
-0.00192404
0.000276933
-0.00236148
0.000361014
-0.0028014
0.000363968
-0.0033143
0.000437746
-0.00384411
0.000455433
-0.00433147
0.000413865
-0.0047591
0.000355104
-0.00512842
0.000297798
-0.00543728
0.000238473
-0.00570499
0.000198426
-0.00594529
0.000172153
-0.006176
0.000163672
-0.00640872
0.000166794
-0.00665309
0.000179525
-0.00691613
0.000199283
-0.00720838
0.000229569
-0.00754542
0.000275416
-0.00794869
0.000342695
-0.00844231
0.000434099
-0.00905052
0.000549713
-0.00979378
0.000685788
-0.0106864
0.000836157
-0.0117302
0.000988267
-0.0129195
0.00113468
-0.0142312
0.00125786
-0.0156419
0.0013577
-0.0171145
0.00142067
-0.018611
0.00144499
-0.0200788
0.00141717
-0.0214587
0.00132981
-0.0227099
0.00120178
-0.0237894
0.00103071
-0.024602
0.000764478
-0.0252143
0.000564751
-0.025389
0.000127807
-0.0252813
-0.000153903
-0.024778
-0.00054879
-0.0239875
-0.000835169
-0.0229161
-0.00111548
-0.0216588
-0.00130073
-0.0202218
-0.00147985
-0.0187101
-0.00155395
-0.0171542
-0.00159761
-0.0155949
-0.00160055
-0.0140697
-0.00156604
-0.0125995
-0.00151066
-0.011212
-0.00142785
-0.00989994
-0.00135231
-0.00870191
-0.00123749
-0.00759926
-0.0011426
-0.00657957
-0.001052
-0.00587492
-0.000742283
-0.00549998
-0.000413268
-0.00500835
-0.000532036
-0.00455372
-0.00049419
-0.00416693
-0.000426586
-0.00386717
-0.000339504
-0.00364727
-0.000259666
-0.00349763
-0.000189344
-0.00341983
-0.00011746
-0.00339807
-6.11799e-05
-0.00341456
-2.27498e-05
-0.00346416
1.07128e-05
-0.00353293
3.03119e-05
-0.00356801
-3.53339e-06
-0.00352391
-8.23596e-05
-0.00365994
9.7506e-05
-0.00389129
0.000194244
-0.00412994
0.000202162
-0.00437094
0.000205022
-0.00464487
0.000238434
-0.00495223
0.000272339
-0.00531024
0.000323386
-0.0057175
0.000373016
-0.00617054
0.000419218
-0.00665676
0.000452647
-0.007161
0.000471153
-0.00766141
0.000467742
-0.00813343
0.00043961
-0.00855071
0.00038525
-0.00889167
0.000309289
-0.00912703
0.000204099
-0.00924643
8.84434e-05
-0.00925258
-2.4462e-05
-0.00913462
-0.000148205
-0.00888355
-0.000280931
-0.00852681
-0.000385942
-0.00806908
-0.000486186
-0.00755672
-0.000539586
-0.00697941
-0.000603531
-0.00645959
-0.000546811
-0.00594642
-0.000540687
-0.0054393
-0.000534814
-0.00498356
-0.000483268
-0.00459189
-0.000418937
-0.00429368
-0.000325242
-0.0040839
-0.000236594
-0.00398403
-0.000126374
-0.00398958
-2.08083e-05
-0.00414445
0.000128844
-0.00442245
0.000252088
-0.00485379
0.000405705
-0.00541417
0.000534903
-0.00611597
0.000676563
-0.00693768
0.000796638
-0.00787733
0.0009148
-0.00891544
0.00101343
-0.0100378
0.00109784
-0.0112211
0.00115906
-0.0124377
0.00119247
-0.0136668
0.00120523
-0.0148907
0.00120004
-0.016097
0.00118269
-0.0172567
0.00113631
-0.0183462
0.00106614
-0.0193465
0.000977204
-0.0202141
0.000844601
-0.0209905
0.00075362
-0.0216104
0.000597563
-0.0220724
0.000439799
-0.0223577
0.000263109
-0.0224671
8.74106e-05
-0.0224447
-4.40248e-05
-0.0222253
-0.000241144
-0.0218642
-0.000382594
-0.0213423
-0.000543344
-0.0206971
-0.000666626
-0.0199426
-0.000775818
-0.0190982
-0.000865589
-0.0181909
-0.000928583
-0.0172176
-0.000994374
-0.0161906
-0.0010484
-0.0151959
-0.00101585
-0.0142364
-0.000980716
-0.0133072
-0.000950225
-0.012409
-0.000919108
-0.0115433
-0.00088633
-0.0107126
-0.000851166
-0.00991927
-0.000813361
-0.00916609
-0.000772848
-0.00845552
-0.000729827
-0.00779021
-0.00068411
-0.00717144
-0.000637092
-0.00660017
-0.000589094
-0.00607513
-0.00054238
-0.00559477
-0.00049721
-0.00515646
-0.000454735
-0.00476565
-0.00040683
-0.00442553
-0.00035582
-0.00414911
-0.000291816
-0.00392603
-0.000238282
-0.00375469
-0.000186338
-0.00362207
-0.000147519
-0.00355888
-7.79399e-05
-0.00355504
-1.85588e-05
-0.00361436
4.466e-05
-0.0037452
0.00011626
-0.00393949
0.000179718
-0.00420517
0.000251188
-0.00452458
0.000304948
-0.00489743
0.000358499
-0.00530841
0.000396696
-0.00574926
0.000426695
-0.00620489
0.000441622
-0.00666409
0.000445285
-0.00711446
0.000436644
-0.00754582
0.000417841
-0.00794964
0.000390452
-0.00832066
0.000357835
-0.00865502
0.000321356
-0.00895059
0.000282738
-0.00920723
0.000243988
-0.00942591
0.000206184
-0.00960872
0.000170478
-0.0097584
0.000137486
-0.00987757
0.000107111
-0.00996924
7.97463e-05
-0.0100345
5.34179e-05
-0.0100766
3.04493e-05
-0.0101009
1.26989e-05
-0.0101055
-6.85973e-06
-0.0100934
-2.33951e-05
-0.0100672
-3.74284e-05
-0.010028
-5.02881e-05
-0.00997791
-6.11567e-05
-0.00991863
-7.02071e-05
-0.00985205
-7.74094e-05
-0.00977999
-8.27994e-05
-0.00970407
-8.65528e-05
-0.00962586
-8.8764e-05
-0.00954668
-8.96366e-05
-0.00946773
-8.9311e-05
-0.00939003
-8.7983e-05
-0.0093144
-8.58119e-05
-0.00924154
-8.29683e-05
-0.00917195
-7.95985e-05
-0.00910603
-7.58425e-05
-0.00904405
-7.18222e-05
-0.00898616
-6.76469e-05
-0.00893241
-6.34089e-05
-0.00888281
-5.91858e-05
-0.00883725
-5.5044e-05
-0.00879562
-5.10365e-05
-0.00875774
-4.72022e-05
-0.00872341
-4.35644e-05
-0.00869241
-4.01412e-05
-0.00866452
-3.69484e-05
-0.0086395
-3.39997e-05
-0.00861709
-3.13023e-05
-0.00859703
-2.88548e-05
-0.0085791
-2.6651e-05
-0.00856306
-2.46797e-05
-0.00854868
-2.29281e-05
-0.00853576
-2.13823e-05
-0.00852412
-2.00263e-05
-0.00851357
-1.88445e-05
-0.00850397
-1.78247e-05
-0.00849515
-1.6952e-05
-0.00848699
-1.62119e-05
-0.00847938
-1.5592e-05
-0.00847219
-1.50787e-05
-0.00846535
-1.46581e-05
-0.00845877
-1.43162e-05
-0.00845239
-1.40414e-05
-0.00844614
-1.38218e-05
-0.00844
-1.36489e-05
-0.00843391
-1.35132e-05
-0.00842785
-1.34074e-05
-0.00842181
-1.33228e-05
-0.00841575
-1.32524e-05
-0.00840969
-1.31893e-05
-0.00840361
-1.31286e-05
-0.00839752
-1.30662e-05
-0.00839143
-1.29984e-05
-0.00838534
-1.29221e-05
-0.00837927
-1.28346e-05
-0.00837322
-1.27343e-05
-0.00836722
-1.26203e-05
-0.00836127
-1.24922e-05
-0.0083554
-1.23503e-05
-0.00834961
-1.21949e-05
-0.00834392
-1.20272e-05
-0.00833834
-1.18487e-05
-0.00833288
-1.16607e-05
-0.00832755
-1.1465e-05
-0.00832235
-1.12638e-05
-0.00831729
-1.10602e-05
-0.00831237
-1.08569e-05
-0.00830758
-1.06565e-05
-0.00830292
-1.046e-05
-0.00829839
-1.02677e-05
-0.00829398
-1.00793e-05
-0.00828969
-9.89544e-06
-0.00828551
-9.71721e-06
-0.00828144
-9.54583e-06
-0.00827747
-9.38229e-06
-0.0082736
-9.22698e-06
-0.0082698
-9.07958e-06
-0.00826609
-8.93973e-06
-0.00826245
-8.80728e-06
-0.00825887
-8.68196e-06
-0.00825534
-8.56313e-06
-0.00825187
-8.44984e-06
-0.00824845
-8.34113e-06
-0.00824507
-8.23601e-06
-0.00824173
-8.13334e-06
-0.00823844
-8.0321e-06
-0.00823518
-7.9319e-06
-0.00823197
-7.83291e-06
-0.00822879
-7.73546e-06
-0.00822565
-7.63983e-06
-0.00822254
-7.54617e-06
-0.00821947
-7.45439e-06
-0.00821643
-7.3642e-06
-0.00821342
-7.27518e-06
-0.00821044
-7.18705e-06
-0.00820749
-7.09959e-06
-0.00820456
-7.0124e-06
-0.00820167
-6.92537e-06
-0.00819881
-6.83857e-06
-0.00819598
-6.7521e-06
-0.00819318
-6.6662e-06
-0.00819041
-6.58112e-06
-0.00818766
-6.49679e-06
-0.00818494
-6.4129e-06
-0.00818226
-6.32846e-06
-0.0081796
-6.24222e-06
-0.00817698
-6.15377e-06
-0.00817439
-6.06348e-06
-0.00817184
-5.97223e-06
-0.00816932
-5.8812e-06
-0.00816685
-5.79167e-06
-0.0081644
-5.70379e-06
-0.00816199
-5.61713e-06
-0.00815961
-5.53188e-06
-0.00815726
-5.44865e-06
-0.00815493
-5.36693e-06
-0.00815264
-5.2864e-06
-0.00815037
-5.20741e-06
-0.00814812
-5.13012e-06
-0.0081459
-5.05635e-06
-0.00814369
-4.98824e-06
-0.00814149
-4.92684e-06
-0.00813929
-4.87416e-06
-0.00813709
-4.82851e-06
-0.00813487
-4.78735e-06
-0.00813264
-4.75928e-06
-0.0081304
-4.70983e-06
-0.00812811
-4.70631e-06
-0.00812582
-4.66161e-06
-0.00812349
-4.64403e-06
-0.00812114
-4.61475e-06
-0.00811876
-4.59448e-06
-0.00811635
-4.57488e-06
-0.00811391
-4.55861e-06
-0.00811142
-4.55088e-06
-0.00810888
-4.54751e-06
-0.00810628
-4.55742e-06
-0.00810361
-4.57785e-06
-0.00810084
-4.61618e-06
-0.00809798
-4.67473e-06
-0.00809497
-4.76005e-06
-0.00809181
-4.87511e-06
-0.00808845
-5.02004e-06
-0.00808488
-5.19294e-06
-0.00808106
-5.38849e-06
-0.00807698
-5.60573e-06
-0.00807262
-5.84181e-06
-0.00806796
-6.10094e-06
-0.00806297
-6.3824e-06
-0.00805763
-6.69034e-06
-0.00805193
-7.02456e-06
-0.00804586
-7.3758e-06
-0.00803943
-7.72431e-06
-0.00803281
-7.9119e-06
-0.00802645
-7.68116e-06
-0.00802178
-6.09398e-06
-0.00802145
-1.97538e-06
-0.00803107
7.6294e-06
-0.00805663
2.31287e-05
-0.00810583
4.63743e-05
-0.00817378
6.49495e-05
-0.00824002
6.33922e-05
-0.00825921
1.68217e-05
-0.00816004
-0.000100908
-0.00791026
-0.00025091
-0.00746389
-0.000446995
-0.00695235
-0.000511852
-0.00635118
-0.000601347
-0.000606953
-0.000147785
-0.00016704
-0.00010377
-0.000493161
0.000177686
-0.000808584
0.000623347
-0.00105437
0.00112967
-0.00116032
0.00160248
-0.00111728
0.0019861
-0.000985233
0.00224699
-0.000777204
0.00233555
-0.000537416
0.00229214
-0.000309316
0.00210161
-0.000106566
0.00182563
3.12994e-05
0.00150288
8.92009e-05
0.00117586
8.90486e-05
0.000890794
1.02224e-05
0.000682051
-0.000109191
0.000582067
-0.000288371
0.00061805
-0.000497061
0.000808315
-0.000750011
0.00118645
-0.00102093
0.00175674
-0.00130051
0.00247602
-0.00157092
0.00332712
-0.0018126
0.00427636
-0.00197113
0.00526579
-0.00201932
0.00620592
-0.00190665
0.00700361
-0.00162065
0.00742712
-0.00108702
0.00737161
-0.000426069
0.00668348
0.000247458
0.00590275
0.000440783
0.00513418
0.000512992
0.00412852
0.000760532
0.00257486
0.00122755
-8.21291e-06
0.00207741
-0.00353205
0.00329641
-0.00818431
0.0049408
-0.0143321
0.00685271
-0.021844
0.00876934
-0.0302751
0.0104087
-0.0390831
0.0116633
-0.0477555
0.0123005
-0.0558606
0.0123617
-0.0631586
0.0119312
-0.0694833
0.0110907
-0.0745751
0.00972959
-0.0784561
0.0082512
-0.0813305
0.00683014
-0.0832539
0.00539232
-0.0843163
0.00395269
-0.0845525
0.00252836
-0.0840661
0.00111328
-0.0826857
-0.000297229
-0.080768
-0.00162901
-0.0784029
-0.00266034
-0.0757097
-0.00373091
-0.0726041
-0.00468908
-0.0691059
-0.005655
-0.0652436
-0.00650822
-0.0610322
-0.00736864
-0.0565092
-0.00801207
-0.0517391
-0.00851687
-0.046815
-0.00882314
-0.0418328
-0.00896456
-0.0368509
-0.00898785
-0.0319258
-0.00888859
-0.0271134
-0.00867865
-0.0224564
-0.00837303
-0.0180031
-0.00799134
-0.0137728
-0.00754492
-0.00980984
-0.00705961
-0.00606741
-0.00652669
-0.00216778
-0.00600994
0.0013211
-0.00559102
0.00442671
-0.00510767
0.00721328
-0.00462087
0.00964438
-0.00413008
0.0117995
-0.00359577
0.0136764
-0.00304524
0.0152225
-0.00244551
0.0163582
-0.0017956
0.017047
-0.00111002
0.0171967
-0.000439237
0.0170748
7.69373e-06
0.0166139
0.000412623
0.016021
0.000581158
0.0152993
0.000630317
0.0146715
0.000365444
0.0143217
-0.000152324
0.0142882
-0.00075981
0.0144139
-0.00118875
0.0144841
-0.00132739
0.0142589
-0.00106059
0.0132213
-0.000311479
0.0117947
0.000711103
0.00995816
0.00181313
0.00658938
0.00374193
0.00131
0.00588421
-0.00500465
0.00800288
-0.0123989
0.00977264
-0.0203913
0.0110121
-0.0282283
0.0116936
-0.0354012
0.011655
-0.0416526
0.0110153
-0.0467634
0.00983953
-0.0506929
0.00835133
-0.0533883
0.00663144
-0.0549523
0.00484447
-0.055334
0.00294041
-0.0547777
0.000935012
-0.0533766
-0.000806851
-0.0513732
-0.00213998
-0.0489205
-0.00364355
-0.0457481
-0.00511667
-0.0419288
-0.00651399
-0.0375149
-0.00758986
-0.0326693
-0.00842459
-0.0275356
-0.00897704
-0.0222163
-0.00931761
-0.0168613
-0.00941759
-0.0115383
-0.00928191
-0.00569166
-0.00896801
-0.000209665
-0.00872436
0.00485146
-0.00823097
0.00956047
-0.0076504
0.0136557
-0.0069836
0.0173276
-0.00620228
0.0206442
-0.00539623
0.0235529
-0.00455083
0.0260121
-0.00366853
0.0279721
-0.00278208
0.0294651
-0.0019383
0.0303205
-0.00105428
0.0304843
-6.75749e-05
0.0301659
0.000731014
0.029261
0.00151432
0.0277713
0.00226187
0.0257832
0.00285954
0.0233786
0.00332581
0.0206588
0.00363918
0.0177458
0.00380303
0.014771
0.00382794
0.0118659
0.00371335
0.0091496
0.00345048
0.00669596
0.00304338
0.00455746
0.00256861
0.00274029
0.00211088
0.00119251
0.00175562
-0.000278728
0.0015253
-0.00169422
0.00139623
-0.00277514
0.00128155
-0.00380713
0.00131706
-0.00486094
0.00134249
-0.00581429
0.00131653
-0.00667259
0.00124
-0.00762423
0.00129276
-0.00859238
0.00125141
-0.00955343
0.00118806
-0.0104805
0.00109579
-0.0113685
0.00101775
-0.0122231
0.000959049
-0.0130573
0.000931283
-0.0138938
0.000937691
-0.0147616
0.000982821
-0.0156863
0.00106045
-0.0167016
0.00118241
-0.017841
0.00135347
-0.0191356
0.00157678
-0.0206081
0.00184713
-0.0222745
0.00215753
-0.0241398
0.00249331
-0.0261964
0.00283571
-0.0284175
0.00315308
-0.0307529
0.00341458
-0.0331381
0.00358827
-0.0354687
0.00363415
-0.0376436
0.00354212
-0.0394969
0.00324563
-0.0409546
0.00282264
-0.0419971
0.00232059
-0.0426208
0.00177422
-0.0427498
0.00110915
-0.0423744
0.000338744
-0.0414003
-0.000458929
-0.0401728
-0.00114881
-0.0385782
-0.00179707
-0.0368496
-0.00232567
-0.0349296
-0.00280286
-0.0328773
-0.00321495
-0.0306645
-0.00355987
-0.0283135
-0.00387622
-0.0259103
-0.00400191
-0.0235036
-0.00404823
-0.0211148
-0.00403242
-0.0187702
-0.00395284
-0.016502
-0.0038202
-0.0143374
-0.003633
-0.012304
-0.00342537
-0.0104059
-0.00317467
-0.00866176
-0.00292423
-0.00714549
-0.00260903
-0.00553449
-0.00238809
-0.00390069
-0.00208288
-0.00270782
-0.00176004
-0.00180442
-0.00143331
-0.00113009
-0.00113677
-0.000658221
-0.000847279
-0.000366693
-0.000587246
-0.000265595
-0.000326606
-0.000294584
-0.000124877
-0.000479321
8.7009e-05
-0.000781783
0.000243048
-0.00120719
0.000399361
-0.00174827
0.000534608
-0.00243638
0.000647695
-0.00329755
0.000742417
-0.00401899
0.000783334
-0.00469724
0.000836758
-0.00543617
0.000905545
-0.00623887
0.000972788
-0.00708634
0.00105142
-0.00798308
0.00113516
-0.00891115
0.00121805
-0.00985846
0.00128734
-0.0108019
0.00133003
-0.0117176
0.00133615
-0.0125785
0.00129996
-0.0133566
0.00121419
-0.0140266
0.00107802
-0.0145711
0.000898247
-0.0149765
0.000683404
-0.0152419
0.000438194
-0.0153675
0.000182831
-0.015362
-6.08325e-05
-0.015228
-0.000313227
-0.0149749
-0.000564708
-0.0146175
-0.00077376
-0.0141908
-0.000943169
-0.0137234
-0.00103534
-0.0130686
-0.00128714
-0.0123893
-0.00125497
-0.0118594
-0.00109939
-0.0115234
-0.000898965
-0.0113374
-0.000697321
-0.0112874
-0.000496509
-0.0113942
-0.000245461
-0.0117291
7.14263e-05
-0.0122903
0.000408596
-0.013093
0.000755764
-0.0141301
0.00114019
-0.0153934
0.00148992
-0.0168609
0.00184801
-0.0185112
0.00216032
-0.0203118
0.0024525
-0.0222317
0.00269203
-0.0242363
0.0028952
-0.026291
0.00304422
-0.028362
0.00314502
-0.0304106
0.00318416
-0.0323885
0.00314719
-0.0342636
0.00305743
-0.0359575
0.00287128
-0.0374409
0.00264395
-0.0386734
0.00234718
-0.0396343
0.00200572
-0.0403497
0.00167173
-0.0408239
0.00129795
-0.040951
0.000860511
-0.0408316
0.000457829
-0.0404139
2.61144e-06
-0.0397831
-0.000387263
-0.0389093
-0.000805526
-0.0378119
-0.00116058
-0.0365404
-0.00153158
-0.0351236
-0.00181835
-0.0336252
-0.00206071
-0.0320634
-0.00224775
-0.0304512
-0.00240713
-0.0288076
-0.00252886
-0.0271569
-0.00259892
-0.0255184
-0.00265323
-0.0241039
-0.00248304
-0.0225841
-0.00255583
-0.0209977
-0.00258727
-0.0194133
-0.00255504
-0.0178574
-0.00249543
-0.0163502
-0.00241419
-0.0149041
-0.00231807
-0.0135292
-0.00220908
-0.0122356
-0.0020874
-0.0110325
-0.0019537
-0.00993008
-0.00180721
-0.00893736
-0.00165017
-0.00806454
-0.00148187
-0.00731904
-0.00130735
-0.00670949
-0.0011256
-0.00623555
-0.00094689
-0.00589215
-0.000767735
-0.00566294
-0.000601917
-0.00553307
-0.000437918
-0.00549939
-0.000287693
-0.00555122
-0.000149791
-0.00571313
-5.88351e-07
-0.00597397
0.000168253
-0.00633631
0.000329317
-0.00679625
0.000490281
-0.00735578
0.0006616
-0.008006
0.000815828
-0.00871965
0.000950814
-0.00949312
0.00106444
-0.0103009
0.00115246
-0.0111294
0.00121131
-0.0119586
0.00124223
-0.0127717
0.00124118
-0.0135534
0.00121359
-0.0142904
0.00116036
-0.014971
0.00108532
-0.0155897
0.000996041
-0.0161424
0.00089764
-0.0166286
0.000794853
-0.01705
0.000691426
-0.0174093
0.000590773
-0.0177102
0.000494623
-0.0179566
0.000404515
-0.0181524
0.000321035
-0.0183017
0.000244389
-0.0184085
0.000174525
-0.018477
0.000110079
-0.0185105
5.21887e-05
-0.0185134
3.96802e-06
-0.0184885
-4.32663e-05
-0.0184405
-8.28024e-05
-0.0183728
-0.000116452
-0.0182893
-0.00014499
-0.0181927
-0.000168794
-0.0180863
-0.000187597
-0.0179725
-0.000202107
-0.0178539
-0.000212225
-0.0177325
-0.000218582
-0.0176105
-0.000221376
-0.0174894
-0.000221146
-0.0173709
-0.000218236
-0.0172561
-0.000213121
-0.0171459
-0.000206183
-0.0170411
-0.000197823
-0.0169423
-0.000188387
-0.0168499
-0.000178198
-0.016764
-0.000167539
-0.0166847
-0.000156656
-0.016612
-0.000145758
-0.0165457
-0.000135018
-0.0164856
-0.00012458
-0.0164314
-0.000114557
-0.0163828
-0.000105034
-0.0163395
-9.60624e-05
-0.016301
-8.76804e-05
-0.016267
-7.9916e-05
-0.0162371
-7.27873e-05
-0.0162109
-6.62993e-05
-0.0161881
-6.04403e-05
-0.0161682
-5.5189e-05
-0.0161509
-5.05147e-05
-0.0161359
-4.63826e-05
-0.0161228
-4.27552e-05
-0.0161116
-3.9592e-05
-0.0161017
-3.68511e-05
-0.0160932
-3.44994e-05
-0.0160856
-3.24984e-05
-0.016079
-3.08101e-05
-0.016073
-2.94008e-05
-0.0160677
-2.82384e-05
-0.0160627
-2.72898e-05
-0.0160581
-2.65216e-05
-0.0160538
-2.59054e-05
-0.0160497
-2.54128e-05
-0.0160457
-2.50224e-05
-0.0160418
-2.47118e-05
-0.0160379
-2.44634e-05
-0.0160341
-2.42579e-05
-0.0160304
-2.408e-05
-0.0160266
-2.39149e-05
-0.0160229
-2.37519e-05
-0.0160193
-2.35822e-05
-0.0160156
-2.33981e-05
-0.016012
-2.3194e-05
-0.0160085
-2.29649e-05
-0.0160051
-2.27085e-05
-0.0160018
-2.24235e-05
-0.0159986
-2.21101e-05
-0.0159955
-2.17694e-05
-0.0159926
-2.14034e-05
-0.0159898
-2.10153e-05
-0.0159871
-2.06088e-05
-0.0159847
-2.01877e-05
-0.0159824
-1.97563e-05
-0.0159802
-1.93198e-05
-0.0159783
-1.88838e-05
-0.0159765
-1.84537e-05
-0.0159748
-1.80339e-05
-0.0159733
-1.76268e-05
-0.0159719
-1.72333e-05
-0.0159707
-1.68537e-05
-0.0159695
-1.64892e-05
-0.0159685
-1.61415e-05
-0.0159675
-1.58126e-05
-0.0159667
-1.55035e-05
-0.0159659
-1.52147e-05
-0.0159652
-1.49451e-05
-0.0159645
-1.46937e-05
-0.0159639
-1.44596e-05
-0.0159633
-1.42416e-05
-0.0159627
-1.4038e-05
-0.0159621
-1.38466e-05
-0.0159615
-1.36653e-05
-0.015961
-1.3492e-05
-0.0159604
-1.33246e-05
-0.0159599
-1.31615e-05
-0.0159593
-1.30018e-05
-0.0159588
-1.28456e-05
-0.0159582
-1.26933e-05
-0.0159577
-1.25449e-05
-0.0159571
-1.24005e-05
-0.0159565
-1.22597e-05
-0.0159559
-1.21219e-05
-0.0159553
-1.19862e-05
-0.0159547
-1.18521e-05
-0.0159541
-1.17191e-05
-0.0159535
-1.15868e-05
-0.0159528
-1.14547e-05
-0.0159521
-1.1323e-05
-0.0159515
-1.11918e-05
-0.0159508
-1.10614e-05
-0.0159501
-1.0932e-05
-0.0159494
-1.08032e-05
-0.0159486
-1.06746e-05
-0.0159479
-1.05448e-05
-0.0159472
-1.04122e-05
-0.0159464
-1.02769e-05
-0.0159456
-1.01398e-05
-0.0159449
-1.00027e-05
-0.0159441
-9.86783e-06
-0.0159433
-9.73735e-06
-0.0159425
-9.61187e-06
-0.0159417
-9.49121e-06
-0.0159408
-9.37601e-06
-0.0159399
-9.26738e-06
-0.015939
-9.16519e-06
-0.0159381
-9.06964e-06
-0.0159371
-8.98205e-06
-0.015936
-8.90358e-06
-0.0159349
-8.83758e-06
-0.0159337
-8.78777e-06
-0.0159324
-8.75542e-06
-0.0159311
-8.74486e-06
-0.0159296
-8.75223e-06
-0.015928
-8.77263e-06
-0.0159263
-8.82796e-06
-0.0159245
-8.84911e-06
-0.0159225
-8.96084e-06
-0.0159204
-9.00964e-06
-0.015918
-9.13699e-06
-0.0159155
-9.24024e-06
-0.0159127
-9.39559e-06
-0.0159097
-9.56821e-06
-0.0159065
-9.78047e-06
-0.0159029
-1.00385e-05
-0.0158989
-1.03461e-05
-0.0158945
-1.07215e-05
-0.0158897
-1.11687e-05
-0.0158843
-1.17073e-05
-0.0158783
-1.23491e-05
-0.0158715
-1.31148e-05
-0.0158639
-1.40194e-05
-0.0158553
-1.50776e-05
-0.0158457
-1.63025e-05
-0.0158348
-1.77077e-05
-0.0158224
-1.93161e-05
-0.0158084
-2.11557e-05
-0.0157925
-2.32694e-05
-0.0157744
-2.5704e-05
-0.0157538
-2.85225e-05
-0.0157302
-3.17936e-05
-0.0157032
-3.55982e-05
-0.015672
-4.00083e-05
-0.0156361
-4.50102e-05
-0.0155946
-5.0432e-05
-0.0155464
-5.56469e-05
-0.0154905
-5.96543e-05
-0.0154243
-6.06657e-05
-0.0153445
-5.91269e-05
-0.0152435
-5.74353e-05
-0.0151096
-7.18125e-05
-0.0149195
-0.00012929
-0.0146497
-0.000255084
-0.0142545
-0.000497758
-0.0137272
-0.000779274
-0.0129892
-0.00118549
-0.0121405
-0.00136066
-0.0111207
-0.001621
-0.00137978
-7.17631e-05
-0.000325126
0.00012005
-0.000914763
0.000567871
-0.00148605
0.00115469
-0.00187069
0.00178909
-0.00202399
0.00237451
-0.00193172
0.00286254
-0.001702
0.00321552
-0.00135861
0.00343428
-0.000984251
0.00352114
-0.000623838
0.00347764
-0.000290326
0.00331646
-3.43103e-05
0.00305229
0.000127077
0.00274142
0.000174159
0.00244714
7.92971e-05
0.00222215
-0.000108795
0.00211363
-0.000403806
0.00215428
-0.00076101
0.00235357
-0.00117187
0.00269375
-0.00158295
0.00322066
-0.00204849
0.00393022
-0.00250078
0.00478635
-0.00288825
0.00571714
-0.00312066
0.00661972
-0.00313991
0.00730367
-0.00280792
0.00763152
-0.00216517
0.00765243
-0.00132397
0.00740663
-0.00039559
0.00680145
0.000638148
0.00535508
0.00167332
0.0029516
0.00270343
-0.00038478
0.00388452
-0.00486952
0.0055004
-0.0107896
0.00778574
-0.0183855
0.0106807
-0.0274065
0.0137506
-0.0372532
0.0164889
-0.0473316
0.0186381
-0.0569509
0.0198194
-0.0655396
0.0200447
-0.0727228
0.019278
-0.0783358
0.0177708
-0.0824405
0.0158338
-0.0851152
0.0135663
-0.086809
0.011226
-0.0880406
0.00928806
-0.0888063
0.00740398
-0.0891089
0.00550655
-0.0889006
0.00355831
-0.0881218
0.00156789
-0.0868267
-0.000360215
-0.0851098
-0.00218861
-0.0830004
-0.00390914
-0.0803179
-0.0055097
-0.0771158
-0.00709647
-0.0733897
-0.00857501
-0.0691958
-0.0100061
-0.0646669
-0.0111923
-0.0599209
-0.0122688
-0.0550014
-0.013085
-0.0499403
-0.0137305
-0.0447741
-0.0141422
-0.0395392
-0.0143532
-0.0343238
-0.0143582
-0.0291921
-0.0141769
-0.0241966
-0.0138326
-0.0193755
-0.0133544
-0.0147604
-0.0127681
-0.0103615
-0.0121061
-0.0062017
-0.011381
-0.00225991
-0.0106336
0.00137217
-0.00980989
0.0046971
-0.00908668
0.00782085
-0.00840532
0.0107563
-0.00773383
0.0135094
-0.007064
0.0160928
-0.00636398
0.0184812
-0.00562169
0.0206715
-0.00482611
0.0226497
-0.00396621
0.0243881
-0.00304122
0.0258132
-0.00205608
0.0266074
-0.000975039
0.0267159
0.000119621
0.0263984
0.000719676
0.0256303
0.00122357
0.0245852
0.00123942
0.02335
0.000914403
0.0220582
0.000368566
0.0207351
-1.94056e-05
0.0192751
-1.37793e-05
0.0174821
0.000599183
0.0150428
0.0020066
0.0111906
0.00444235
0.00536472
0.00750999
-0.00169629
0.0106683
-0.00979034
0.0138421
-0.0183079
0.0163826
-0.0266817
0.0180093
-0.0341508
0.0183438
-0.0403579
0.017765
-0.0452472
0.0164094
-0.0489981
0.0146326
-0.051788
0.0124969
-0.053663
0.0100956
-0.0549257
0.00776424
-0.0556189
0.00540955
-0.0557351
0.00293061
-0.055223
0.000299938
-0.0537112
-0.00243727
-0.051055
-0.00491147
-0.0475799
-0.00723107
-0.0435351
-0.0092716
-0.0390562
-0.0111011
-0.0341157
-0.0126358
-0.0287799
-0.013863
-0.0231308
-0.0147259
-0.0173056
-0.01524
-0.0114179
-0.0153997
-0.00552725
-0.0152642
0.00016921
-0.0147534
0.00550542
-0.0141467
0.0106123
-0.0134218
0.0154283
-0.0125488
0.0199409
-0.0115776
0.0241833
-0.0105265
0.0281047
-0.0094
0.0316606
-0.00818945
0.0348424
-0.00693367
0.037651
-0.00567514
0.0400384
-0.00441222
0.0419362
-0.00304187
0.0434107
-0.00163277
0.0443263
-0.000276964
0.0445891
0.00115626
0.0442147
0.0025385
0.0431461
0.00382909
0.041349
0.00502352
0.038844
0.00604608
0.0357084
0.00684311
0.0320598
0.0073843
0.0280594
0.00762277
0.0238934
0.00752724
0.0197452
0.00710472
0.0157874
0.00644279
0.0121486
0.00566905
0.00893934
0.00488644
0.0062009
0.00418673
0.00384215
0.00367826
0.00163631
0.00341034
-0.000398005
0.00327415
-0.00232093
0.0031885
-0.00416766
0.00308709
-0.00593529
0.00293264
-0.00745648
0.00274004
-0.00881511
0.00253763
-0.0100344
0.00233635
-0.0111763
0.00216822
-0.0122782
0.00205145
-0.0133817
0.00199569
-0.0145289
0.00201276
-0.0157629
0.00210716
-0.0171162
0.00227259
-0.0186101
0.00249186
-0.020253
0.0027637
-0.0220478
0.00308744
-0.0239923
0.00346138
-0.0260769
0.00387263
-0.0282779
0.00430014
-0.0305529
0.00471063
-0.0328401
0.00506597
-0.0350642
0.00532078
-0.0371477
0.00544213
-0.0390155
0.00540063
-0.0406143
0.0051777
-0.0419393
0.0048125
-0.0430121
0.00426386
-0.043785
0.00354134
-0.0442409
0.00272254
-0.0444002
0.0018801
-0.0442064
0.00086237
-0.0436039
-0.000316043
-0.0426608
-0.00145376
-0.0413893
-0.00247157
-0.0397262
-0.00351059
-0.0376591
-0.00444222
-0.0352826
-0.00522818
-0.0326718
-0.00587379
-0.0298846
-0.00639442
-0.0270496
-0.00675782
-0.02414
-0.00695745
-0.0211988
-0.00703465
-0.0182881
-0.00698752
-0.0154391
-0.00684559
-0.0126813
-0.00662117
-0.0100239
-0.00633309
-0.00750192
-0.00598925
-0.00511169
-0.00560626
-0.00290481
-0.00517144
-0.000833396
-0.0047206
0.000939833
-0.00420131
0.00252691
-0.00370752
0.00395929
-0.0032276
0.00523872
-0.00274645
0.00632553
-0.00225612
0.00720038
-0.00175391
0.00783222
-0.00125035
0.00822223
-0.000747646
0.00833835
-0.000272124
0.00824969
0.000144163
0.00792702
0.000533901
0.00737569
0.000918602
0.00662364
0.0012541
0.0057049
0.00153323
0.00464561
0.00176811
0.00342796
0.00196731
0.00208785
0.00214282
0.000683342
0.00227599
-0.000761687
0.00238397
-0.00221688
0.00247319
-0.00367477
0.00256013
-0.00512303
0.00263399
-0.00654584
0.00267841
-0.00791876
0.00267173
-0.0092218
0.00260837
-0.0104317
0.00247931
-0.0115305
0.00228275
-0.0124968
0.00201432
-0.0133108
0.00168222
-0.0139557
0.00129827
-0.0144354
0.000887774
-0.0147403
0.000457501
-0.0148246
-6.89606e-06
-0.0147247
-0.000443732
-0.0145149
-0.000804988
-0.014204
-0.0011152
-0.013844
-0.0013331
-0.0134525
-0.00145759
-0.0132897
-0.00147966
-0.013234
-0.00134012
-0.0132104
-0.00115106
-0.013218
-0.000919234
-0.0135048
-0.000437789
-0.0141452
0.000117084
-0.015054
0.000636772
-0.0162053
0.00119656
-0.0175828
0.00176043
-0.0191765
0.00232403
-0.0209432
0.00288191
-0.0228737
0.0033957
-0.0249229
0.00387287
-0.0270555
0.004269
-0.0292201