/*--------------------------------*- C++ -*----------------------------------*\
| =========                 |                                                 |
| \\      /  F ield         | OpenFOAM: The Open Source CFD Toolbox           |
|  \\    /   O peration     | Version:  v1812                                 |
|   \\  /    A nd           | Web:      www.OpenFOAM.com                      |
|    \\/     M anipulation  |                                                 |
\*---------------------------------------------------------------------------*/
FoamFile
{
    version     2.0;
    format      ascii;
    class       volScalarField;
    location    "0.9";
    object      T;
}
// * * * * * * * * * * * * * * * * * * * * * * * * * * * * * * * * * * * * * //

dimensions      [0 0 0 1 0 0 0];


internalField   nonuniform List<scalar> 
20400
(
289.573
289.564
289.55
289.534
289.518
289.505
289.494
289.487
289.482
289.48
289.48
289.484
289.49
289.498
289.509
289.522
289.536
289.551
289.568
289.585
289.605
289.627
289.651
289.678
289.707
289.739
289.774
289.809
289.846
289.884
289.921
289.953
289.972
289.97
289.945
289.888
289.797
289.684
289.562
289.446
289.344
289.263
289.202
289.159
289.128
289.107
289.091
289.081
289.075
289.072
289.073
289.076
289.081
289.087
289.093
289.105
289.127
289.157
289.196
289.245
289.304
289.372
289.449
289.533
289.626
289.729
289.842
289.965
290.099
290.246
290.405
290.578
290.758
290.948
291.154
291.375
291.608
291.855
292.109
292.363
292.612
292.845
293.053
293.228
293.364
293.456
293.5
293.495
293.438
293.325
293.167
292.963
292.722
292.472
292.249
292.073
291.954
291.886
291.851
291.838
291.838
291.836
291.834
291.828
291.821
291.809
291.798
291.782
291.77
291.759
291.751
291.746
291.747
291.746
291.75
291.751
291.755
291.758
291.762
291.766
291.772
291.777
291.787
291.802
291.825
291.857
291.902
291.959
292.024
292.092
292.16
292.221
292.268
292.295
292.3
292.285
292.231
292.135
292.007
291.854
291.675
291.471
291.253
291.04
290.842
290.662
290.503
290.37
290.261
290.177
290.116
290.073
290.05
290.042
290.05
290.072
290.103
290.142
290.186
290.233
290.28
290.328
290.376
290.423
290.469
290.515
290.561
290.605
290.649
290.692
290.734
290.775
290.814
290.851
290.885
290.918
290.948
290.976
291.001
291.024
291.045
291.063
291.081
291.097
291.113
291.129
291.144
291.158
291.17
291.179
291.187
291.193
291.197
291.199
291.2
291.199
291.198
291.196
291.197
291.198
291.201
291.212
291.22
291.236
291.257
291.284
291.318
291.359
291.406
291.459
291.518
291.581
291.648
291.719
291.791
291.863
291.935
292.007
292.077
292.145
292.21
292.271
292.328
292.38
292.427
292.469
292.505
292.535
292.558
292.573
292.581
292.582
292.577
292.563
292.544
292.518
292.489
292.456
292.423
292.39
292.36
292.333
292.308
292.285
292.263
292.243
292.223
292.205
292.187
292.171
292.155
292.14
292.127
292.116
292.106
292.098
292.091
292.086
292.081
292.077
292.074
292.073
292.072
292.072
292.074
292.078
292.083
292.089
292.098
292.107
292.119
292.132
292.147
292.163
292.183
292.206
292.232
292.26
292.292
292.327
292.364
292.405
292.448
292.492
292.538
292.584
292.632
292.679
292.726
292.772
292.816
292.857
292.896
292.931
292.962
292.989
293.011
293.03
293.045
293.057
293.067
293.074
293.08
293.084
293.087
293.09
293.092
293.094
293.095
293.097
293.099
293.101
293.104
293.106
293.109
293.113
293.117
293.121
293.126
293.131
293.137
293.143
293.149
293.156
293.163
293.17
293.177
293.184
293.192
293.199
293.207
293.214
293.222
293.229
293.237
293.244
293.251
293.258
293.265
293.271
293.278
293.284
293.29
293.296
293.302
293.307
293.313
293.318
293.323
293.328
293.333
293.338
293.342
293.347
293.351
293.356
293.36
293.364
293.368
293.372
293.376
293.38
293.384
293.388
293.392
293.396
293.399
293.403
293.407
293.41
293.414
293.418
293.421
293.425
293.429
293.432
293.436
293.44
293.443
293.447
293.45
293.454
293.458
293.461
293.465
293.468
293.472
293.476
293.479
293.483
293.486
293.49
293.494
293.497
293.501
293.504
293.508
293.511
293.515
293.518
293.522
293.526
293.529
293.533
293.536
293.54
293.543
293.547
293.55
293.554
293.558
293.561
293.565
293.568
293.572
293.575
293.579
293.582
293.586
293.589
293.593
293.596
293.6
293.603
293.607
293.61
293.614
293.618
293.621
293.624
293.628
293.631
293.635
293.638
293.642
293.645
293.649
293.652
293.656
293.659
293.663
293.666
293.67
293.673
293.676
293.68
293.683
293.687
293.69
293.694
293.697
293.701
293.704
293.707
293.711
293.714
293.718
293.721
293.724
293.728
293.731
293.734
293.738
293.741
293.744
293.747
293.751
293.754
293.757
293.761
293.764
293.768
293.771
293.774
293.778
293.781
293.784
293.787
293.79
293.793
293.795
293.798
293.8
293.801
293.801
293.8
293.796
293.787
293.769
293.739
293.693
293.632
293.563
293.493
293.434
293.39
293.365
293.355
293.355
293.36
289.547
289.537
289.522
289.507
289.493
289.481
289.473
289.467
289.464
289.462
289.463
289.466
289.472
289.48
289.49
289.502
289.516
289.531
289.547
289.565
289.585
289.607
289.633
289.662
289.695
289.729
289.763
289.798
289.833
289.87
289.904
289.931
289.941
289.924
289.868
289.764
289.63
289.485
289.347
289.223
289.112
289.012
288.921
288.837
288.758
288.686
288.618
288.556
288.498
288.45
288.412
288.389
288.378
288.375
288.396
288.418
288.446
288.476
288.508
288.542
288.576
288.612
288.649
288.69
288.734
288.784
288.841
288.909
288.988
289.081
289.195
289.326
289.474
289.636
289.826
290.04
290.279
290.544
290.833
291.14
291.46
291.783
292.095
292.385
292.643
292.864
293.049
293.196
293.288
293.311
293.278
293.158
292.93
292.614
292.293
292.06
291.939
291.888
291.879
291.886
291.898
291.908
291.916
291.92
291.923
291.925
291.931
291.936
291.949
291.969
291.992
292.013
292.028
292.036
292.039
292.03
292.015
291.99
291.955
291.912
291.863
291.812
291.759
291.707
291.656
291.609
291.565
291.526
291.504
291.503
291.518
291.557
291.616
291.694
291.777
291.859
291.922
291.95
291.943
291.917
291.861
291.757
291.598
291.409
291.214
291.012
290.812
290.629
290.471
290.342
290.241
290.168
290.12
290.092
290.083
290.092
290.117
290.157
290.207
290.263
290.322
290.381
290.439
290.495
290.55
290.603
290.654
290.703
290.75
290.794
290.836
290.876
290.913
290.947
290.978
291.006
291.033
291.057
291.08
291.101
291.124
291.146
291.172
291.199
291.228
291.256
291.285
291.314
291.342
291.368
291.392
291.414
291.431
291.443
291.45
291.453
291.447
291.437
291.421
291.402
291.381
291.355
291.336
291.317
291.301
291.29
291.285
291.289
291.303
291.327
291.362
291.407
291.462
291.525
291.597
291.674
291.755
291.837
291.918
291.995
292.068
292.136
292.198
292.254
292.304
292.349
292.388
292.423
292.453
292.478
292.498
292.511
292.518
292.518
292.509
292.49
292.464
292.429
292.39
292.351
292.312
292.279
292.249
292.224
292.201
292.179
292.159
292.14
292.122
292.105
292.089
292.073
292.058
292.044
292.03
292.018
292.005
291.992
291.979
291.965
291.951
291.936
291.922
291.907
291.894
291.881
291.869
291.859
291.85
291.843
291.837
291.834
291.834
291.836
291.841
291.849
291.859
291.873
291.891
291.912
291.938
291.968
292.004
292.044
292.091
292.142
292.199
292.261
292.328
292.397
292.469
292.542
292.614
292.684
292.751
292.811
292.866
292.912
292.95
292.981
293.005
293.023
293.035
293.044
293.049
293.052
293.053
293.054
293.053
293.052
293.051
293.05
293.049
293.049
293.049
293.05
293.051
293.053
293.055
293.058
293.062
293.066
293.071
293.077
293.083
293.09
293.097
293.105
293.113
293.121
293.13
293.139
293.148
293.157
293.166
293.175
293.183
293.192
293.201
293.209
293.217
293.225
293.233
293.24
293.248
293.255
293.262
293.268
293.274
293.28
293.286
293.292
293.298
293.303
293.308
293.313
293.318
293.323
293.327
293.332
293.336
293.34
293.344
293.348
293.353
293.356
293.36
293.364
293.368
293.372
293.376
293.379
293.383
293.387
293.39
293.394
293.397
293.401
293.405
293.408
293.412
293.415
293.419
293.422
293.426
293.429
293.433
293.436
293.44
293.443
293.447
293.45
293.454
293.457
293.461
293.464
293.468
293.471
293.475
293.478
293.482
293.485
293.489
293.492
293.496
293.499
293.502
293.506
293.509
293.513
293.516
293.52
293.523
293.527
293.53
293.533
293.537
293.54
293.544
293.547
293.551
293.554
293.558
293.561
293.564
293.568
293.571
293.575
293.578
293.581
293.585
293.588
293.592
293.595
293.599
293.602
293.605
293.609
293.612
293.615
293.619
293.622
293.625
293.629
293.632
293.636
293.639
293.642
293.646
293.649
293.652
293.656
293.659
293.663
293.666
293.669
293.673
293.676
293.679
293.683
293.686
293.689
293.692
293.696
293.699
293.702
293.705
293.709
293.712
293.715
293.719
293.722
293.725
293.728
293.732
293.735
293.738
293.741
293.744
293.746
293.749
293.751
293.753
293.753
293.753
293.751
293.745
293.734
293.713
293.68
293.635
293.579
293.52
293.462
293.411
293.37
293.34
293.323
293.316
293.319
289.503
289.492
289.478
289.464
289.453
289.446
289.441
289.437
289.436
289.435
289.437
289.44
289.445
289.453
289.462
289.474
289.487
289.503
289.52
289.54
289.564
289.592
289.624
289.66
289.7
289.741
289.78
289.815
289.845
289.872
289.893
289.9
289.88
289.808
289.682
289.515
289.336
289.163
289.004
288.858
288.725
288.605
288.496
288.401
288.323
288.268
288.23
288.206
288.197
288.196
288.217
288.248
288.289
288.332
288.377
288.421
288.462
288.497
288.526
288.546
288.556
288.558
288.551
288.539
288.522
288.503
288.486
288.473
288.464
288.46
288.455
288.461
288.49
288.545
288.629
288.752
288.912
289.116
289.365
289.658
289.989
290.351
290.731
291.116
291.492
291.84
292.161
292.457
292.735
292.977
293.118
293.115
292.99
292.681
292.288
292.016
291.925
291.915
291.946
291.987
292.034
292.083
292.136
292.193
292.252
292.313
292.374
292.426
292.471
292.502
292.521
292.536
292.55
292.559
292.564
292.558
292.542
292.514
292.47
292.41
292.331
292.236
292.122
291.995
291.859
291.718
291.579
291.452
291.336
291.23
291.139
291.069
291.034
291.032
291.05
291.102
291.19
291.305
291.43
291.548
291.636
291.671
291.665
291.642
291.584
291.468
291.3
291.102
290.891
290.694
290.528
290.399
290.302
290.23
290.182
290.159
290.157
290.182
290.228
290.291
290.363
290.437
290.51
290.58
290.645
290.707
290.765
290.819
290.869
290.915
290.957
290.995
291.029
291.059
291.085
291.108
291.129
291.149
291.168
291.187
291.205
291.226
291.247
291.27
291.296
291.326
291.361
291.399
291.44
291.483
291.529
291.576
291.625
291.674
291.719
291.758
291.787
291.806
291.816
291.815
291.802
291.776
291.74
291.694
291.64
291.578
291.512
291.447
291.387
291.337
291.302
291.284
291.281
291.292
291.325
291.375
291.437
291.511
291.596
291.685
291.772
291.853
291.928
291.992
292.049
292.098
292.141
292.181
292.22
292.259
292.299
292.339
292.378
292.411
292.434
292.444
292.443
292.417
292.377
292.324
292.27
292.22
292.178
292.145
292.119
292.095
292.075
292.056
292.038
292.021
292.004
291.988
291.971
291.954
291.937
291.92
291.904
291.888
291.871
291.855
291.839
291.824
291.808
291.793
291.779
291.765
291.751
291.738
291.726
291.714
291.702
291.688
291.674
291.658
291.641
291.624
291.606
291.59
291.574
291.559
291.545
291.532
291.523
291.518
291.522
291.534
291.555
291.589
291.635
291.697
291.772
291.86
291.962
292.075
292.195
292.318
292.44
292.556
292.66
292.75
292.823
292.882
292.926
292.958
292.978
292.989
292.994
292.993
292.989
292.983
292.975
292.968
292.96
292.952
292.945
292.938
292.933
292.928
292.925
292.923
292.922
292.922
292.923
292.926
292.93
292.935
292.942
292.949
292.957
292.966
292.976
292.987
292.998
293.01
293.023
293.035
293.048
293.06
293.073
293.085
293.097
293.109
293.121
293.132
293.143
293.154
293.164
293.174
293.183
293.192
293.201
293.209
293.217
293.225
293.232
293.239
293.246
293.252
293.258
293.264
293.269
293.275
293.28
293.285
293.29
293.294
293.299
293.303
293.307
293.312
293.316
293.32
293.324
293.327
293.331
293.335
293.339
293.342
293.346
293.349
293.353
293.356
293.36
293.363
293.367
293.37
293.373
293.377
293.38
293.384
293.387
293.39
293.394
293.397
293.4
293.404
293.407
293.41
293.414
293.417
293.42
293.423
293.427
293.43
293.433
293.437
293.44
293.443
293.446
293.45
293.453
293.456
293.459
293.463
293.466
293.469
293.472
293.476
293.479
293.482
293.485
293.489
293.492
293.495
293.499
293.502
293.505
293.508
293.512
293.515
293.518
293.521
293.525
293.528
293.531
293.534
293.538
293.541
293.544
293.547
293.55
293.554
293.557
293.56
293.563
293.567
293.57
293.573
293.576
293.579
293.583
293.586
293.589
293.593
293.596
293.599
293.602
293.606
293.609
293.612
293.615
293.619
293.622
293.625
293.628
293.631
293.634
293.638
293.641
293.644
293.647
293.65
293.653
293.656
293.66
293.663
293.666
293.669
293.672
293.674
293.677
293.679
293.681
293.683
293.683
293.683
293.68
293.674
293.662
293.643
293.615
293.58
293.54
293.498
293.455
293.411
293.364
293.321
293.292
293.284
289.454
289.445
289.434
289.426
289.421
289.418
289.416
289.415
289.414
289.413
289.414
289.417
289.422
289.428
289.438
289.45
289.464
289.482
289.503
289.528
289.558
289.595
289.639
289.688
289.738
289.782
289.816
289.84
289.857
289.865
289.86
289.827
289.741
289.59
289.395
289.186
288.987
288.81
288.66
288.538
288.443
288.377
288.337
288.318
288.31
288.308
288.316
288.38
288.45
288.547
288.66
288.784
288.91
289.038
289.165
289.281
289.383
289.462
289.516
289.545
289.553
289.526
289.467
289.385
289.278
289.148
289.003
288.849
288.697
288.557
288.443
288.354
288.288
288.247
288.227
288.222
288.248
288.323
288.452
288.64
288.893
289.208
289.577
289.987
290.413
290.834
291.246
291.65
292.062
292.477
292.817
292.961
292.904
292.635
292.225
291.975
291.938
291.981
292.063
292.161
292.27
292.384
292.495
292.593
292.67
292.718
292.742
292.753
292.754
292.749
292.743
292.74
292.741
292.744
292.748
292.75
292.747
292.738
292.713
292.673
292.613
292.528
292.417
292.28
292.121
291.946
291.76
291.571
291.386
291.213
291.054
290.911
290.787
290.683
290.61
290.586
290.597
290.639
290.725
290.857
291.019
291.189
291.342
291.455
291.518
291.54
291.531
291.479
291.35
291.165
290.958
290.767
290.613
290.491
290.392
290.313
290.259
290.24
290.252
290.302
290.378
290.47
290.564
290.654
290.736
290.809
290.874
290.933
290.985
291.03
291.068
291.1
291.125
291.144
291.155
291.16
291.161
291.161
291.16
291.161
291.162
291.164
291.17
291.183
291.204
291.232
291.268
291.312
291.365
291.426
291.493
291.564
291.637
291.71
291.784
291.856
291.926
291.989
292.045
292.092
292.129
292.154
292.165
292.161
292.142
292.101
292.04
291.961
291.867
291.759
291.644
291.533
291.436
291.356
291.292
291.248
291.231
291.236
291.265
291.318
291.386
291.464
291.546
291.622
291.687
291.744
291.791
291.832
291.871
291.912
291.958
292.013
292.077
292.15
292.227
292.299
292.352
292.376
292.377
292.331
292.267
292.196
292.134
292.087
292.053
292.028
292.008
291.992
291.978
291.967
291.958
291.951
291.946
291.941
291.935
291.929
291.925
291.923
291.922
291.925
291.929
291.936
291.944
291.954
291.965
291.977
291.99
292.001
292.01
292.013
292.009
291.999
291.982
291.957
291.923
291.882
291.833
291.777
291.716
291.651
291.586
291.522
291.462
291.405
291.352
291.306
291.267
291.235
291.207
291.187
291.185
291.203
291.245
291.315
291.411
291.533
291.68
291.847
292.023
292.199
292.364
292.511
292.636
292.737
292.813
292.865
292.897
292.913
292.916
292.911
292.9
292.885
292.868
292.85
292.832
292.814
292.797
292.781
292.767
292.754
292.743
292.734
292.726
292.721
292.717
292.716
292.716
292.718
292.723
292.729
292.737
292.747
292.759
292.772
292.787
292.803
292.82
292.838
292.856
292.874
292.893
292.911
292.93
292.948
292.965
292.983
293
293.016
293.032
293.047
293.062
293.076
293.089
293.102
293.114
293.125
293.136
293.147
293.156
293.166
293.175
293.183
293.191
293.199
293.206
293.213
293.219
293.225
293.231
293.237
293.242
293.247
293.252
293.257
293.261
293.266
293.27
293.274
293.278
293.282
293.285
293.289
293.293
293.296
293.3
293.303
293.307
293.31
293.313
293.316
293.32
293.323
293.326
293.329
293.333
293.336
293.339
293.342
293.345
293.348
293.351
293.354
293.358
293.361
293.364
293.367
293.37
293.373
293.376
293.379
293.382
293.385
293.388
293.391
293.394
293.397
293.4
293.403
293.406
293.41
293.413
293.416
293.419
293.422
293.425
293.428
293.431
293.434
293.437
293.44
293.443
293.446
293.449
293.452
293.455
293.458
293.461
293.464
293.467
293.471
293.474
293.477
293.48
293.483
293.486
293.489
293.492
293.495
293.498
293.501
293.504
293.507
293.51
293.513
293.516
293.519
293.523
293.526
293.529
293.532
293.535
293.538
293.542
293.545
293.548
293.551
293.554
293.557
293.56
293.563
293.566
293.569
293.572
293.575
293.578
293.581
293.584
293.587
293.59
293.592
293.595
293.598
293.6
293.602
293.604
293.606
293.606
293.605
293.603
293.597
293.587
293.574
293.556
293.535
293.51
293.479
293.441
293.388
293.325
293.284
289.415
289.41
289.407
289.408
289.409
289.41
289.41
289.408
289.407
289.405
289.405
289.406
289.409
289.416
289.425
289.438
289.455
289.477
289.503
289.536
289.577
289.628
289.685
289.742
289.791
289.821
289.838
289.842
289.835
289.815
289.766
289.666
289.502
289.29
289.067
288.863
288.696
288.572
288.489
288.441
288.415
288.402
288.4
288.434
288.49
288.57
288.669
288.788
288.915
289.059
289.219
289.394
289.584
289.785
289.989
290.187
290.371
290.53
290.655
290.739
290.779
290.788
290.743
290.66
290.542
290.386
290.192
289.967
289.717
289.454
289.186
288.924
288.679
288.461
288.287
288.173
288.112
288.095
288.105
288.165
288.299
288.517
288.82
289.197
289.627
290.087
290.558
291.037
291.537
292.064
292.543
292.806
292.789
292.551
292.152
291.955
291.976
292.085
292.236
292.403
292.572
292.72
292.829
292.886
292.901
292.877
292.831
292.78
292.73
292.681
292.643
292.627
292.628
292.649
292.68
292.713
292.738
292.75
292.743
292.72
292.676
292.607
292.509
292.377
292.211
292.021
291.817
291.603
291.387
291.17
290.964
290.776
290.611
290.47
290.352
290.26
290.206
290.201
290.218
290.27
290.369
290.519
290.711
290.921
291.125
291.296
291.413
291.469
291.487
291.459
291.36
291.201
291.024
290.866
290.73
290.607
290.493
290.401
290.348
290.342
290.387
290.469
290.573
290.685
290.791
290.883
290.961
291.026
291.077
291.117
291.146
291.163
291.17
291.169
291.158
291.145
291.128
291.106
291.083
291.061
291.044
291.035
291.033
291.041
291.057
291.081
291.114
291.157
291.212
291.278
291.356
291.445
291.542
291.645
291.752
291.855
291.954
292.05
292.139
292.221
292.296
292.362
292.419
292.466
292.499
292.512
292.508
292.486
292.439
292.364
292.262
292.132
291.979
291.813
291.65
291.503
291.384
291.292
291.216
291.159
291.137
291.144
291.172
291.216
291.269
291.326
291.378
291.42
291.458
291.496
291.536
291.586
291.649
291.732
291.836
291.96
292.091
292.21
292.29
292.316
292.284
292.21
292.127
292.056
292.009
291.98
291.965
291.957
291.955
291.957
291.962
291.966
291.975
291.987
292.003
292.025
292.053
292.085
292.122
292.165
292.21
292.258
292.307
292.357
292.403
292.447
292.484
292.516
292.539
292.557
292.568
292.573
292.57
292.558
292.536
292.503
292.458
292.401
292.33
292.248
292.153
292.048
291.933
291.812
291.685
291.556
291.429
291.31
291.204
291.115
291.04
290.981
290.938
290.908
290.902
290.923
290.985
291.087
291.225
291.398
291.6
291.817
292.034
292.236
292.413
292.558
292.669
292.745
292.792
292.815
292.82
292.814
292.798
292.775
292.747
292.717
292.685
292.654
292.624
292.595
292.568
292.543
292.52
292.499
292.48
292.465
292.452
292.441
292.434
292.43
292.428
292.43
292.435
292.443
292.455
292.469
292.486
292.506
292.527
292.551
292.575
292.6
292.626
292.653
292.68
292.706
292.733
292.759
292.785
292.81
292.834
292.858
292.881
292.903
292.924
292.944
292.964
292.982
292.999
293.016
293.032
293.047
293.061
293.074
293.087
293.099
293.11
293.12
293.13
293.139
293.148
293.156
293.164
293.171
293.178
293.184
293.19
293.196
293.202
293.207
293.211
293.216
293.22
293.225
293.229
293.232
293.236
293.24
293.243
293.247
293.25
293.253
293.257
293.26
293.263
293.266
293.269
293.272
293.275
293.278
293.281
293.284
293.287
293.29
293.293
293.296
293.299
293.302
293.305
293.308
293.31
293.313
293.316
293.319
293.322
293.325
293.327
293.33
293.333
293.336
293.339
293.342
293.344
293.347
293.35
293.353
293.356
293.359
293.361
293.364
293.367
293.37
293.373
293.376
293.378
293.381
293.384
293.387
293.39
293.393
293.395
293.398
293.401
293.404
293.407
293.409
293.412
293.415
293.418
293.421
293.424
293.427
293.43
293.432
293.435
293.438
293.441
293.444
293.447
293.45
293.453
293.456
293.459
293.462
293.465
293.468
293.471
293.474
293.477
293.48
293.483
293.486
293.489
293.491
293.494
293.497
293.5
293.503
293.505
293.508
293.511
293.514
293.516
293.519
293.521
293.523
293.525
293.526
293.527
293.527
293.526
293.523
293.518
293.511
293.503
293.492
293.476
293.448
293.394
293.314
289.394
289.396
289.401
289.408
289.416
289.42
289.421
289.419
289.416
289.414
289.412
289.412
289.415
289.422
289.434
289.45
289.472
289.5
289.535
289.578
289.631
289.691
289.752
289.8
289.824
289.829
289.813
289.787
289.751
289.69
289.583
289.417
289.207
288.988
288.796
288.653
288.564
288.516
288.492
288.481
288.502
288.551
288.622
288.71
288.804
288.899
288.995
289.095
289.211
289.343
289.498
289.681
289.891
290.127
290.379
290.64
290.901
291.151
291.379
291.574
291.716
291.798
291.824
291.781
291.69
291.555
291.372
291.139
290.859
290.542
290.2
289.846
289.491
289.148
288.828
288.541
288.301
288.13
288.048
288.036
288.062
288.162
288.365
288.681
289.097
289.582
290.103
290.642
291.21
291.808
292.362
292.684
292.685
292.463
292.089
291.955
292.039
292.219
292.44
292.662
292.846
292.959
292.999
292.967
292.887
292.795
292.667
292.529
292.4
292.303
292.239
292.211
292.226
292.276
292.352
292.441
292.528
292.599
292.639
292.647
292.635
292.593
292.51
292.382
292.209
291.993
291.743
291.476
291.206
290.947
290.71
290.501
290.323
290.177
290.059
289.965
289.896
289.862
289.862
289.875
289.914
289.99
290.112
290.286
290.507
290.754
290.999
291.212
291.359
291.435
291.47
291.453
291.38
291.265
291.134
291.003
290.865
290.718
290.581
290.481
290.448
290.477
290.559
290.669
290.788
290.906
291.006
291.083
291.138
291.173
291.19
291.193
291.184
291.163
291.135
291.099
291.061
291.024
290.994
290.971
290.959
290.954
290.956
290.967
290.982
291.004
291.034
291.074
291.127
291.195
291.28
291.381
291.497
291.619
291.745
291.878
292.013
292.142
292.261
292.369
292.466
292.551
292.627
292.693
292.751
292.802
292.841
292.863
292.861
292.844
292.802
292.73
292.625
292.484
292.31
292.114
291.906
291.699
291.507
291.347
291.227
291.136
291.056
290.998
290.975
290.98
290.991
291.007
291.033
291.065
291.098
291.136
291.186
291.256
291.352
291.481
291.645
291.835
292.027
292.178
292.247
292.238
292.162
292.074
292.003
291.961
291.945
291.943
291.955
291.971
291.993
292.022
292.059
292.105
292.159
292.222
292.29
292.363
292.438
292.512
292.584
292.65
292.709
292.76
292.802
292.836
292.862
292.881
292.897
292.91
292.921
292.931
292.94
292.946
292.949
292.945
292.933
292.91
292.872
292.819
292.749
292.66
292.554
292.431
292.292
292.14
291.977
291.807
291.633
291.459
291.29
291.129
290.986
290.871
290.784
290.723
290.689
290.686
290.709
290.778
290.894
291.056
291.259
291.489
291.732
291.969
292.183
292.363
292.503
292.603
292.667
292.702
292.711
292.707
292.69
292.663
292.627
292.587
292.544
292.5
292.455
292.411
292.367
292.325
292.285
292.248
292.214
292.184
292.156
292.132
292.112
292.096
292.084
292.076
292.073
292.075
292.081
292.093
292.109
292.128
292.151
292.178
292.207
292.239
292.272
292.306
292.342
292.378
292.415
292.452
292.489
292.525
292.561
292.596
292.63
292.663
292.695
292.726
292.756
292.784
292.812
292.838
292.863
292.886
292.909
292.93
292.95
292.969
292.987
293.004
293.02
293.034
293.048
293.061
293.073
293.084
293.094
293.104
293.113
293.121
293.129
293.136
293.143
293.149
293.155
293.16
293.165
293.17
293.174
293.178
293.182
293.186
293.19
293.193
293.196
293.2
293.203
293.206
293.209
293.212
293.215
293.218
293.221
293.224
293.227
293.23
293.232
293.235
293.238
293.241
293.243
293.246
293.249
293.252
293.254
293.257
293.26
293.262
293.265
293.268
293.27
293.273
293.276
293.278
293.281
293.283
293.286
293.289
293.291
293.294
293.296
293.299
293.302
293.304
293.307
293.31
293.312
293.315
293.317
293.32
293.323
293.325
293.328
293.33
293.333
293.336
293.338
293.341
293.343
293.346
293.348
293.351
293.354
293.357
293.359
293.362
293.365
293.368
293.37
293.373
293.376
293.379
293.382
293.384
293.387
293.39
293.393
293.396
293.399
293.402
293.404
293.407
293.41
293.413
293.415
293.418
293.421
293.423
293.426
293.428
293.431
293.434
293.436
293.439
293.441
293.443
293.446
293.448
293.449
293.451
293.452
293.453
293.452
293.451
293.45
293.448
293.445
293.439
293.411
293.345
289.39
289.398
289.412
289.428
289.44
289.446
289.448
289.447
289.444
289.441
289.439
289.441
289.447
289.457
289.473
289.495
289.524
289.56
289.603
289.654
289.711
289.768
289.811
289.827
289.816
289.774
289.723
289.668
289.596
289.489
289.334
289.14
288.939
288.77
288.655
288.59
288.56
288.548
288.568
288.624
288.709
288.809
288.908
288.995
289.068
289.128
289.184
289.242
289.316
289.412
289.538
289.704
289.906
290.144
290.408
290.692
290.986
291.282
291.571
291.85
292.116
292.34
292.494
292.558
292.536
292.455
292.324
292.132
291.877
291.564
291.2
290.799
290.377
289.948
289.53
289.134
288.771
288.455
288.207
288.056
288.013
288.032
288.126
288.346
288.71
289.201
289.775
290.39
291.031
291.685
292.27
292.599
292.6
292.384
292.044
291.962
292.119
292.365
292.641
292.879
293.026
293.078
293.042
292.937
292.779
292.577
292.355
292.149
291.979
291.857
291.778
291.744
291.767
291.842
291.96
292.107
292.262
292.401
292.495
292.53
292.526
292.496
292.421
292.285
292.087
291.832
291.537
291.223
290.912
290.621
290.365
290.149
289.975
289.84
289.737
289.662
289.609
289.583
289.582
289.588
289.607
289.644
289.707
289.805
289.951
290.152
290.404
290.687
290.963
291.196
291.356
291.44
291.491
291.49
291.457
291.393
291.29
291.151
290.977
290.793
290.644
290.566
290.574
290.642
290.752
290.874
290.989
291.083
291.156
291.197
291.21
291.209
291.189
291.154
291.11
291.061
291.016
290.978
290.952
290.937
290.931
290.931
290.94
290.951
290.966
290.985
291.01
291.045
291.094
291.163
291.253
291.362
291.494
291.653
291.83
292.013
292.193
292.363
292.519
292.656
292.773
292.87
292.949
293.014
293.069
293.116
293.158
293.195
293.22
293.222
293.212
293.184
293.131
293.051
292.937
292.787
292.599
292.378
292.133
291.882
291.641
291.421
291.238
291.095
290.989
290.894
290.813
290.753
290.723
290.712
290.711
290.721
290.749
290.797
290.87
290.976
291.125
291.325
291.57
291.831
292.051
292.174
292.184
292.118
292.032
291.968
291.94
291.936
291.958
291.995
292.045
292.107
292.181
292.266
292.36
292.459
292.559
292.655
292.743
292.82
292.884
292.932
292.965
292.984
292.992
292.994
292.992
292.988
292.986
292.987
292.993
293.003
293.017
293.035
293.053
293.071
293.085
293.097
293.104
293.097
293.074
293.033
292.971
292.887
292.78
292.649
292.496
292.322
292.132
291.93
291.72
291.51
291.305
291.112
290.936
290.785
290.665
290.581
290.533
290.521
290.535
290.584
290.679
290.822
291.011
291.236
291.483
291.732
291.965
292.166
292.328
292.449
292.53
292.58
292.6
292.599
292.588
292.563
292.527
292.481
292.43
292.372
292.311
292.249
292.187
292.127
292.069
292.013
291.962
291.914
291.869
291.828
291.792
291.76
291.732
291.71
291.693
291.683
291.678
291.679
291.686
291.701
291.72
291.745
291.774
291.807
291.844
291.884
291.927
291.972
292.018
292.066
292.114
292.162
292.211
292.259
292.306
292.353
292.399
292.443
292.486
292.528
292.568
292.607
292.644
292.68
292.714
292.746
292.777
292.806
292.834
292.86
292.884
292.907
292.929
292.949
292.968
292.985
293.001
293.016
293.03
293.042
293.054
293.064
293.074
293.083
293.091
293.098
293.105
293.111
293.117
293.122
293.127
293.131
293.136
293.14
293.143
293.147
293.15
293.154
293.157
293.16
293.163
293.166
293.169
293.172
293.175
293.178
293.18
293.183
293.186
293.188
293.191
293.194
293.196
293.199
293.202
293.204
293.207
293.209
293.212
293.214
293.217
293.219
293.222
293.224
293.226
293.229
293.231
293.234
293.236
293.239
293.241
293.244
293.246
293.248
293.251
293.253
293.256
293.258
293.26
293.263
293.265
293.268
293.27
293.272
293.275
293.277
293.279
293.281
293.284
293.286
293.289
293.291
293.294
293.296
293.299
293.302
293.304
293.307
293.309
293.312
293.314
293.317
293.32
293.322
293.325
293.328
293.33
293.333
293.336
293.338
293.341
293.344
293.346
293.349
293.351
293.354
293.356
293.359
293.361
293.364
293.366
293.369
293.371
293.373
293.376
293.378
293.38
293.382
293.384
293.385
293.387
293.388
293.389
293.39
293.392
293.393
293.38
293.337
289.4
289.414
289.435
289.457
289.473
289.483
289.488
289.49
289.49
289.491
289.495
289.502
289.513
289.531
289.554
289.583
289.618
289.658
289.703
289.751
289.797
289.828
289.834
289.804
289.735
289.655
289.576
289.493
289.389
289.252
289.084
288.911
288.767
288.672
288.624
288.606
288.603
288.65
288.735
288.852
288.974
289.084
289.168
289.225
289.262
289.285
289.303
289.322
289.35
289.399
289.47
289.577
289.722
289.91
290.141
290.414
290.725
291.067
291.431
291.8
292.149
292.464
292.741
292.963
293.06
293.055
292.988
292.861
292.664
292.393
292.054
291.654
291.209
290.735
290.252
289.777
289.325
288.907
288.54
288.247
288.065
288.01
288.033
288.15
288.427
288.886
289.494
290.189
290.915
291.628
292.227
292.542
292.535
292.322
292.015
291.973
292.179
292.488
292.799
293.025
293.121
293.13
293.029
292.855
292.606
292.325
292.055
291.819
291.63
291.49
291.401
291.361
291.376
291.454
291.591
291.779
291.994
292.2
292.354
292.425
292.429
292.404
292.324
292.169
291.933
291.627
291.275
290.908
290.558
290.247
289.992
289.793
289.647
289.544
289.474
289.427
289.399
289.388
289.389
289.395
289.407
289.428
289.461
289.51
289.586
289.703
289.875
290.109
290.397
290.712
291.008
291.246
291.403
291.49
291.567
291.615
291.607
291.564
291.445
291.256
291.033
290.831
290.705
290.677
290.726
290.815
290.931
291.044
291.134
291.188
291.211
291.215
291.197
291.161
291.114
291.063
291.016
290.979
290.956
290.946
290.945
290.952
290.962
290.974
290.985
290.998
291.016
291.044
291.091
291.16
291.26
291.4
291.573
291.773
291.992
292.219
292.447