/*--------------------------------*- C++ -*----------------------------------*\
| =========                 |                                                 |
| \\      /  F ield         | OpenFOAM: The Open Source CFD Toolbox           |
|  \\    /   O peration     | Version:  v1812                                 |
|   \\  /    A nd           | Web:      www.OpenFOAM.com                      |
|    \\/     M anipulation  |                                                 |
\*---------------------------------------------------------------------------*/
FoamFile
{
    version     2.0;
    format      ascii;
    class       volVectorField;
    location    "0.9";
    object      U;
}
// * * * * * * * * * * * * * * * * * * * * * * * * * * * * * * * * * * * * * //

dimensions      [0 1 -1 0 0 0 0];


internalField   nonuniform List<vector> 
20400
(
(-0.0216137 -0.0132197 0)
(-0.0553986 -0.0346053 0)
(-0.0417723 -0.0495028 0)
(-0.00600805 -0.060512 0)
(0.0543743 -0.0583451 0)
(0.116063 -0.0463315 0)
(0.172141 -0.0333683 0)
(0.206402 -0.0152332 0)
(0.217043 -0.00830866 0)
(0.194736 0.00795788 0)
(0.152392 0.00829378 0)
(0.090716 0.0105181 0)
(0.0189922 0.00452926 0)
(-0.0519001 0.000539054 0)
(-0.119108 -0.00976212 0)
(-0.167371 -0.0195364 0)
(-0.20415 -0.034297 0)
(-0.212644 -0.0482924 0)
(-0.186802 -0.071223 0)
(-0.136302 -0.0961285 0)
(-0.0531674 -0.117152 0)
(0.0607948 -0.127869 0)
(0.21921 -0.136453 0)
(0.402695 -0.144717 0)
(0.599295 -0.152736 0)
(0.787278 -0.155624 0)
(0.942865 -0.145424 0)
(1.04452 -0.126865 0)
(1.09622 -0.0893124 0)
(1.11232 -0.107151 0)
(1.08968 -0.202612 0)
(1.06581 -0.307613 0)
(0.99179 -0.367786 0)
(0.906409 -0.293361 0)
(0.953943 -0.126649 0)
(0.948478 -0.0612722 0)
(0.762836 0.0534234 0)
(0.474267 0.111522 0)
(-0.0103981 0.183191 0)
(-0.671377 0.214897 0)
(-1.63123 0.255895 0)
(-2.84432 0.257676 0)
(-4.30544 0.237734 0)
(-5.91867 0.267797 0)
(-7.63696 0.346466 0)
(-9.32477 0.37531 0)
(-10.9868 0.287675 0)
(-12.4865 0.139712 0)
(-13.8693 0.0339107 0)
(-15.052 -0.0403349 0)
(-16.0538 -0.0888304 0)
(-16.8275 -0.122689 0)
(-17.3884 -0.178207 0)
(-17.7671 -0.152951 0)
(-17.9036 -0.0523975 0)
(-17.7816 0.153222 0)
(-17.4452 0.242696 0)
(-16.9402 0.3076 0)
(-16.2583 0.455737 0)
(-15.4084 0.557709 0)
(-14.4153 0.639878 0)
(-13.3308 0.668776 0)
(-12.1744 0.660763 0)
(-10.9845 0.618905 0)
(-9.77532 0.567454 0)
(-8.57083 0.503218 0)
(-7.39269 0.427118 0)
(-6.2501 0.337092 0)
(-5.17636 0.229438 0)
(-4.14441 0.110885 0)
(-3.23127 -0.0469126 0)
(-2.33879 -0.188123 0)
(-1.67068 -0.390234 0)
(-1.10077 -0.391089 0)
(-0.526819 -0.356061 0)
(-0.0153846 -0.273744 0)
(0.443795 -0.183586 0)
(0.856557 -0.124494 0)
(1.15711 -0.0847874 0)
(1.39104 -0.0586795 0)
(1.52184 -0.0382522 0)
(1.59428 -0.027182 0)
(1.59791 -0.0277658 0)
(1.53578 -0.0042506 0)
(1.46182 -0.0077132 0)
(1.35245 -0.0171969 0)
(1.27124 -0.026189 0)
(1.2095 -0.0461177 0)
(1.23813 -0.0759835 0)
(1.36068 -0.11144 0)
(1.57312 -0.142628 0)
(1.86536 -0.157582 0)
(2.20947 -0.163308 0)
(2.5252 -0.215566 0)
(2.85619 -0.319719 0)
(2.88009 -0.456226 0)
(2.66327 -0.132657 0)
(2.49791 0.11581 0)
(1.95357 0.36262 0)
(1.20711 0.47933 0)
(0.188712 0.520754 0)
(-1.0238 0.50103 0)
(-2.53515 0.534771 0)
(-4.15793 0.585086 0)
(-5.84479 0.617872 0)
(-7.46479 0.610911 0)
(-8.93144 0.550541 0)
(-10.2617 0.473312 0)
(-11.2618 0.440571 0)
(-12.0641 0.474118 0)
(-12.4675 0.530222 0)
(-12.6479 0.592839 0)
(-12.4667 0.703792 0)
(-12.0123 0.793477 0)
(-11.29 0.785211 0)
(-10.3815 0.723488 0)
(-9.3054 0.590263 0)
(-8.14119 0.413646 0)
(-6.87265 0.210343 0)
(-5.62665 -0.0471248 0)
(-4.30027 -0.287296 0)
(-3.20617 -0.641898 0)
(-2.23424 -0.669675 0)
(-1.18369 -0.638976 0)
(-0.263799 -0.528907 0)
(0.659034 -0.344588 0)
(1.49336 -0.242665 0)
(2.19889 -0.163349 0)
(2.74469 -0.105963 0)
(3.16125 -0.0619087 0)
(3.42605 -0.030777 0)
(3.57635 -0.00410464 0)
(3.61776 0.00645897 0)
(3.56219 0.0238596 0)
(3.40599 0.0494908 0)
(3.16794 0.0655955 0)
(2.87344 0.0784125 0)
(2.53338 0.079817 0)
(2.17268 0.0776371 0)
(1.80404 0.075843 0)
(1.44367 0.076718 0)
(1.09671 0.0827089 0)
(0.764539 0.0943438 0)
(0.455595 0.105493 0)
(0.176944 0.106871 0)
(-0.0389803 0.0999479 0)
(-0.217217 0.0706665 0)
(-0.342387 0.0545061 0)
(-0.454092 0.0107121 0)
(-0.498633 -0.0207172 0)
(-0.562507 -0.179095 0)
(-0.718902 -0.260642 0)
(-0.848169 -0.33985 0)
(-1.01823 -0.358113 0)
(-1.1888 -0.349917 0)
(-1.36546 -0.265344 0)
(-1.51044 -0.16697 0)
(-1.64465 -0.056079 0)
(-1.7544 0.04045 0)
(-1.85017 0.11357 0)
(-1.93503 0.16288 0)
(-2.01442 0.18871 0)
(-2.09281 0.197549 0)
(-2.1728 0.193575 0)
(-2.25772 0.183819 0)
(-2.35046 0.173115 0)
(-2.45567 0.166377 0)
(-2.57942 0.16659 0)
(-2.7293 0.176075 0)
(-2.9133 0.196427 0)
(-3.13901 0.229033 0)
(-3.41174 0.273998 0)
(-3.73539 0.329425 0)
(-4.10721 0.390124 0)
(-4.52512 0.44599 0)
(-4.98139 0.486114 0)
(-5.45946 0.490337 0)
(-5.95744 0.436649 0)
(-6.45264 0.34375 0)
(-6.92696 0.217172 0)
(-7.36278 0.0885943 0)
(-7.7547 -0.00316923 0)
(-8.0663 -0.127246 0)
(-8.2982 -0.153741 0)
(-8.45325 -0.143209 0)
(-8.47524 -0.0180706 0)
(-8.3448 0.107276 0)
(-8.13799 0.258174 0)
(-7.81344 0.385342 0)
(-7.43043 0.503321 0)
(-6.97731 0.626939 0)
(-6.48404 0.698545 0)
(-5.97244 0.741271 0)
(-5.45277 0.757799 0)
(-4.93564 0.745762 0)
(-4.44218 0.709338 0)
(-3.95419 0.654149 0)
(-3.52383 0.563616 0)
(-3.0767 0.479853 0)
(-2.72787 0.320815 0)
(-2.35178 0.223969 0)
(-2.04864 0.00917305 0)
(-1.90423 -0.100677 0)
(-1.74733 -0.138997 0)
(-1.59226 -0.12857 0)
(-1.44925 -0.111946 0)
(-1.3365 -0.0907313 0)
(-1.25053 -0.0707595 0)
(-1.18795 -0.0537581 0)
(-1.1507 -0.0327935 0)
(-1.13294 -0.0199441 0)
(-1.13057 -0.0102113 0)
(-1.14872 -0.00160909 0)
(-1.15878 0.00219847 0)
(-1.1904 -0.00844218 0)
(-1.17514 -0.0359317 0)
(-1.17884 -0.134884 0)
(-1.25796 -0.249325 0)
(-1.3357 -0.322455 0)
(-1.41494 -0.390207 0)
(-1.50368 -0.430488 0)
(-1.6002 -0.466088 0)
(-1.71268 -0.486593 0)
(-1.84067 -0.498183 0)
(-1.9853 -0.496606 0)
(-2.14234 -0.481973 0)
(-2.30947 -0.451328 0)
(-2.47648 -0.404272 0)
(-2.64063 -0.340519 0)
(-2.79 -0.261793 0)
(-2.91749 -0.169757 0)
(-3.01657 -0.0720393 0)
(-3.07587 0.0289364 0)
(-3.10043 0.11591 0)
(-3.08244 0.202292 0)
(-3.01212 0.254064 0)
(-2.90979 0.280096 0)
(-2.7677 0.276852 0)
(-2.61054 0.239136 0)
(-2.42359 0.186285 0)
(-2.24292 0.110533 0)
(-2.07136 0.0697701 0)
(-1.9009 0.0345545 0)
(-1.7372 0.00745023 0)
(-1.59995 -0.0268499 0)
(-1.48068 -0.0525523 0)
(-1.39971 -0.0724956 0)
(-1.34456 -0.0810451 0)
(-1.32578 -0.0884724 0)
(-1.35954 -0.0783275 0)
(-1.42648 -0.0717033 0)
(-1.55014 -0.0507959 0)
(-1.71054 -0.0307426 0)
(-1.92521 0.00107698 0)
(-2.17596 0.0379111 0)
(-2.47268 0.0855582 0)
(-2.79963 0.13927 0)
(-3.16322 0.197589 0)
(-3.54373 0.252887 0)
(-3.94965 0.297779 0)
(-4.35151 0.326319 0)
(-4.76889 0.317873 0)
(-5.16714 0.27395 0)
(-5.568 0.202743 0)
(-5.93744 0.109235 0)
(-6.28965 0.00467248 0)
(-6.59962 -0.0760914 0)
(-6.87381 -0.159725 0)
(-7.10474 -0.270697 0)
(-7.28655 -0.319406 0)
(-7.40679 -0.364499 0)
(-7.47989 -0.37411 0)
(-7.50038 -0.34576 0)
(-7.44187 -0.301129 0)
(-7.35842 -0.211374 0)
(-7.20172 -0.10286 0)
(-7.01182 0.0323185 0)
(-6.77619 0.171453 0)
(-6.5101 0.319056 0)
(-6.21664 0.454382 0)
(-5.90706 0.58219 0)
(-5.57069 0.702436 0)
(-5.23175 0.745794 0)
(-4.90594 0.753526 0)
(-4.59149 0.739262 0)
(-4.28675 0.712693 0)
(-3.99314 0.679088 0)
(-3.71044 0.640149 0)
(-3.43993 0.597373 0)
(-3.18227 0.551384 0)
(-2.93841 0.502981 0)
(-2.70906 0.452843 0)
(-2.49516 0.401794 0)
(-2.29663 0.35032 0)
(-2.11396 0.299155 0)
(-1.94612 0.247354 0)
(-1.79275 0.193966 0)
(-1.65416 0.13602 0)
(-1.53172 0.0739281 0)
(-1.4289 0.00852078 0)
(-1.34587 -0.0553157 0)
(-1.28026 -0.110984 0)
(-1.22777 -0.1651 0)
(-1.19402 -0.22043 0)
(-1.18122 -0.265867 0)
(-1.19108 -0.303907 0)
(-1.2269 -0.336283 0)
(-1.27957 -0.364342 0)
(-1.35958 -0.382064 0)
(-1.45531 -0.398862 0)
(-1.57245 -0.407817 0)
(-1.7021 -0.412389 0)
(-1.84559 -0.410243 0)
(-1.99372 -0.402565 0)
(-2.14847 -0.388946 0)
(-2.2982 -0.369927 0)
(-2.44682 -0.346631 0)
(-2.58517 -0.319516 0)
(-2.71531 -0.289314 0)
(-2.83265 -0.256838 0)
(-2.938 -0.223044 0)
(-3.03007 -0.188755 0)
(-3.10942 -0.154931 0)
(-3.17636 -0.122333 0)
(-3.23184 -0.0915896 0)
(-3.27667 -0.0631986 0)
(-3.3118 -0.0372456 0)
(-3.33821 -0.0144158 0)
(-3.35589 0.00591275 0)
(-3.3674 0.0217044 0)
(-3.37268 0.0384953 0)
(-3.37105 0.0508508 0)
(-3.36405 0.0609543 0)
(-3.35273 0.0684637 0)
(-3.33749 0.0742154 0)
(-3.31913 0.0781419 0)
(-3.29796 0.0806191 0)
(-3.27478 0.0817177 0)
(-3.24998 0.0816619 0)
(-3.22421 0.0805917 0)
(-3.19786 0.0786821 0)
(-3.17142 0.0760831 0)
(-3.14522 0.0729413 0)
(-3.11958 0.06939 0)
(-3.09474 0.0655486 0)
(-3.07092 0.0615243 0)
(-3.04826 0.057409 0)
(-3.02686 0.0532827 0)
(-3.00681 0.0492112 0)
(-2.98813 0.0452486 0)
(-2.97084 0.0414376 0)
(-2.95491 0.037811 0)
(-2.94031 0.034392 0)
(-2.927 0.0311961 0)
(-2.9149 0.0282325 0)
(-2.90395 0.0255061 0)
(-2.89407 0.0230172 0)
(-2.8852 0.0207627 0)
(-2.87723 0.0187359 0)
(-2.8701 0.016927 0)
(-2.86371 0.0153242 0)
(-2.85799 0.0139138 0)
(-2.85286 0.0126815 0)
(-2.84826 0.0116124 0)
(-2.84411 0.0106917 0)
(-2.84036 0.00990492 0)
(-2.83695 0.00923796 0)
(-2.83382 0.00867712 0)
(-2.83094 0.00820943 0)
(-2.82825 0.00782243 0)
(-2.82573 0.00750415 0)
(-2.82334 0.0072434 0)
(-2.82105 0.00703006 0)
(-2.81884 0.006855 0)
(-2.81668 0.00671017 0)
(-2.81456 0.00658836 0)
(-2.81247 0.00648322 0)
(-2.81039 0.00638906 0)
(-2.80832 0.00630106 0)
(-2.80625 0.00621504 0)
(-2.80418 0.00612775 0)
(-2.80211 0.00603661 0)
(-2.80003 0.00593968 0)
(-2.79794 0.00583559 0)
(-2.79586 0.00572354 0)
(-2.79378 0.0056032 0)
(-2.79171 0.00547477 0)
(-2.78965 0.00533882 0)
(-2.78761 0.00519625 0)
(-2.78559 0.00504827 0)
(-2.78359 0.00489625 0)
(-2.78163 0.00474174 0)
(-2.7797 0.00458631 0)
(-2.77781 0.00443156 0)
(-2.77596 0.00427911 0)
(-2.77416 0.00413048 0)
(-2.7724 0.00398706 0)
(-2.77068 0.00384991 0)
(-2.76902 0.00371976 0)
(-2.76739 0.003597 0)
(-2.76581 0.00348184 0)
(-2.76427 0.00337443 0)
(-2.76277 0.00327495 0)
(-2.76131 0.00318351 0)
(-2.75989 0.00310012 0)
(-2.7585 0.00302457 0)
(-2.75715 0.00295649 0)
(-2.75582 0.00289536 0)
(-2.75452 0.00284059 0)
(-2.75325 0.00279154 0)
(-2.75199 0.00274749 0)
(-2.75076 0.00270768 0)
(-2.74955 0.00267136 0)
(-2.74835 0.00263784 0)
(-2.74717 0.00260651 0)
(-2.746 0.00257694 0)
(-2.74485 0.00254884 0)
(-2.74371 0.00252212 0)
(-2.74259 0.00249674 0)
(-2.74148 0.0024727 0)
(-2.74038 0.0024499 0)
(-2.73929 0.00242821 0)
(-2.73821 0.0024074 0)
(-2.73714 0.00238726 0)
(-2.73609 0.00236753 0)
(-2.73504 0.00234804 0)
(-2.73401 0.00232865 0)
(-2.73298 0.00230929 0)
(-2.73197 0.00228996 0)
(-2.73096 0.00227067 0)
(-2.72997 0.00225144 0)
(-2.72898 0.00223225 0)
(-2.72801 0.00221299 0)
(-2.72704 0.00219353 0)
(-2.72609 0.00217369 0)
(-2.72514 0.0021534 0)
(-2.7242 0.00213273 0)
(-2.72328 0.00211208 0)
(-2.72236 0.00209195 0)
(-2.72146 0.00207296 0)
(-2.72057 0.00205566 0)
(-2.71969 0.00204048 0)
(-2.71883 0.00202768 0)
(-2.71797 0.00201753 0)
(-2.71712 0.00201032 0)
(-2.71629 0.00200632 0)
(-2.71547 0.00200584 0)
(-2.71465 0.00200935 0)
(-2.71384 0.00201759 0)
(-2.71305 0.00203124 0)
(-2.71226 0.00205127 0)
(-2.71147 0.00207828 0)
(-2.71069 0.00211271 0)
(-2.70991 0.00215453 0)
(-2.70914 0.00220378 0)
(-2.70835 0.00226058 0)
(-2.70757 0.00232363 0)
(-2.70677 0.0023962 0)
(-2.70598 0.00247544 0)
(-2.70517 0.00256651 0)
(-2.70435 0.00266638 0)
(-2.70352 0.00278423 0)
(-2.70269 0.00291814 0)
(-2.70185 0.00307478 0)
(-2.70099 0.00325663 0)
(-2.70012 0.00346895 0)
(-2.69924 0.00371677 0)
(-2.69833 0.00400595 0)
(-2.69741 0.00434341 0)
(-2.69646 0.00473643 0)
(-2.69547 0.00519372 0)
(-2.69445 0.00572435 0)
(-2.69338 0.00633878 0)
(-2.69225 0.00704838 0)
(-2.69105 0.00786742 0)
(-2.68976 0.00881266 0)
(-2.6884 0.00990735 0)
(-2.68694 0.0111777 0)
(-2.68539 0.0126621 0)
(-2.68372 0.0143992 0)
(-2.68196 0.0164518 0)
(-2.68004 0.0188745 0)
(-2.67805 0.0217762 0)
(-2.67583 0.0252342 0)
(-2.67365 0.0294631 0)
(-2.67118 0.0345914 0)
(-2.66929 0.041163 0)
(-2.6677 0.0496317 0)
(-2.66933 0.0616936 0)
(-2.67398 0.0787472 0)
(-2.68771 0.104501 0)
(-2.70499 0.141141 0)
(-2.73204 0.192149 0)
(-2.74386 0.252905 0)
(-2.74561 0.318284 0)
(-2.65189 0.356349 0)
(-2.60286 0.403293 0)
(-2.33774 0.380516 0)
(-2.29788 0.360775 0)
(-1.91726 0.250576 0)
(-0.0329291 -0.0412242 0)
(-0.0598299 -0.118893 0)
(0.00815778 -0.18795 0)
(0.128116 -0.241523 0)
(0.295717 -0.26104 0)
(0.453347 -0.248875 0)
(0.602053 -0.218731 0)
(0.704065 -0.176523 0)
(0.772741 -0.138276 0)
(0.780239 -0.098667 0)
(0.731855 -0.067074 0)
(0.656944 -0.0374569 0)
(0.553055 -0.0240907 0)
(0.447983 -0.0206746 0)
(0.341054 -0.0391011 0)
(0.260455 -0.0700809 0)
(0.201517 -0.122299 0)
(0.188067 -0.179202 0)
(0.232432 -0.237787 0)
(0.330681 -0.269139 0)
(0.489789 -0.311447 0)
(0.706245 -0.342156 0)
(0.966721 -0.364612 0)
(1.26838 -0.365468 0)
(1.59125 -0.342377 0)
(1.91513 -0.291045 0)
(2.19992 -0.216148 0)
(2.41644 -0.146731 0)
(2.48895 -0.0870255 0)
(2.34022 -0.0647514 0)
(2.08976 0.00937359 0)
(1.84289 0.0692205 0)
(1.5452 0.111995 0)
(1.12667 0.21676 0)
(0.435485 0.32478 0)
(-0.609744 0.474664 0)
(-1.93976 0.828985 0)
(-3.75008 1.20929 0)
(-6.02511 1.54315 0)
(-8.69181 1.85992 0)
(-11.5557 2.24094 0)
(-14.4717 2.54262 0)
(-17.2652 2.72278 0)
(-19.8254 2.68865 0)
(-22.1038 2.49198 0)
(-23.9922 2.23149 0)
(-25.5074 2.01874 0)
(-26.5973 1.81432 0)
(-27.4139 1.58457 0)
(-27.9083 1.32364 0)
(-28.1524 1.06631 0)
(-28.1016 0.782344 0)
(-27.7111 0.604264 0)
(-27.1909 0.314301 0)
(-26.4368 0.0676229 0)
(-25.6156 -0.272028 0)
(-24.6281 -0.518027 0)
(-23.5308 -0.755274 0)
(-22.2952 -0.982542 0)
(-20.9531 -1.22608 0)
(-19.4937 -1.40957 0)
(-17.9473 -1.56291 0)
(-16.3321 -1.67005 0)
(-14.6864 -1.73822 0)
(-13.0318 -1.78217 0)
(-11.3892 -1.79867 0)
(-9.77357 -1.79118 0)
(-8.20872 -1.76179 0)
(-6.69347 -1.71916 0)
(-5.26839 -1.65994 0)
(-3.89048 -1.6066 0)
(-2.64423 -1.53256 0)
(-1.36695 -1.50177 0)
(-0.125925 -1.39283 0)
(0.949043 -1.23913 0)
(1.93974 -1.06294 0)
(2.80087 -0.879676 0)
(3.56717 -0.691365 0)
(4.23901 -0.530902 0)
(4.81776 -0.382199 0)
(5.27176 -0.255361 0)
(5.58106 -0.125159 0)
(5.74752 -0.0382366 0)
(5.75501 0.0449733 0)
(5.64393 0.0951594 0)
(5.47009 0.136929 0)
(5.25693 0.0857038 0)
(5.01593 -0.0178663 0)
(4.85447 -0.165041 0)
(4.78016 -0.322176 0)
(4.8128 -0.451787 0)
(4.85206 -0.524383 0)
(4.83972 -0.513389 0)
(4.58523 -0.491747 0)
(4.16114 -0.165521 0)
(3.66004 0.218545 0)
(2.81727 0.718287 0)
(1.30184 1.16142 0)
(-0.596181 1.7016 0)
(-2.91238 2.04589 0)
(-5.47725 2.35339 0)
(-8.15102 2.42481 0)
(-10.6575 2.40923 0)
(-12.9129 2.27894 0)
(-14.8239 2.0661 0)
(-16.3435 1.8044 0)
(-17.458 1.53333 0)
(-18.204 1.25546 0)
(-18.5592 0.975366 0)
(-18.5273 0.576715 0)
(-18.156 0.240864 0)
(-17.5511 -0.0438429 0)
(-16.8296 -0.469955 0)
(-15.8699 -0.814729 0)
(-14.6965 -1.18347 0)
(-13.3071 -1.46408 0)
(-11.7505 -1.71168 0)
(-10.0698 -1.89757 0)
(-8.32822 -2.04179 0)
(-6.51233 -2.15193 0)
(-4.7609 -2.20355 0)
(-2.88618 -2.29082 0)
(-0.96205 -2.26578 0)
(0.765078 -2.1065 0)
(2.41407 -1.90393 0)
(3.88019 -1.6428 0)
(5.1638 -1.33058 0)
(6.32988 -1.05128 0)
(7.3656 -0.809854 0)
(8.26531 -0.583702 0)
(9.00111 -0.38539 0)
(9.57511 -0.19143 0)
(9.98367 -0.059898 0)
(10.1843 0.102292 0)
(10.1513 0.272261 0)
(9.92761 0.391358 0)
(9.5271 0.499257 0)
(8.94451 0.586948 0)
(8.21197 0.654003 0)
(7.35504 0.68969 0)
(6.41322 0.70494 0)
(5.42842 0.710318 0)
(4.44421 0.705439 0)
(3.50317 0.681535 0)
(2.64089 0.618282 0)
(1.8705 0.536507 0)
(1.21575 0.434125 0)
(0.649454 0.363473 0)
(0.163117 0.320695 0)
(-0.33232 0.335047 0)
(-0.750501 0.313025 0)
(-1.0833 0.325031 0)
(-1.44353 0.326023 0)
(-1.77402 0.323874 0)
(-2.0758 0.297992 0)
(-2.36969 0.243174 0)
(-2.69682 0.181525 0)
(-3.01309 0.119023 0)
(-3.33008 0.0665617 0)
(-3.63152 0.0267935 0)
(-3.92245 1.09008e-06 0)
(-4.2047 -0.0131642 0)
(-4.48313 -0.0158014 0)
(-4.76818 -0.00914912 0)
(-5.06735 0.00361579 0)
(-5.39145 0.0224823 0)
(-5.75118 0.0479045 0)
(-6.15783 0.0815781 0)
(-6.6199 0.123368 0)
(-7.14407 0.171898 0)
(-7.73387 0.223367 0)
(-8.38865 0.273557 0)
(-9.10303 0.316799 0)
(-9.86481 0.352016 0)
(-10.6508 0.378839 0)
(-11.4432 0.40111 0)
(-12.1894 0.423957 0)
(-12.8678 0.456704 0)
(-13.4169 0.479107 0)
(-13.8346 0.487599 0)
(-14.109 0.477922 0)
(-14.2514 0.430067 0)
(-14.2269 0.373657 0)
(-13.9418 0.309236 0)
(-13.6217 0.147302 0)
(-13.1221 0.0131051 0)
(-12.5821 -0.169572 0)
(-11.9679 -0.322704 0)
(-11.306 -0.470474 0)
(-10.5954 -0.576053 0)
(-9.83231 -0.693895 0)
(-9.03783 -0.761499 0)
(-8.23577 -0.808372 0)
(-7.43518 -0.832601 0)
(-6.64729 -0.834929 0)
(-5.87355 -0.819833 0)
(-5.14215 -0.785439 0)
(-4.42889 -0.748642 0)
(-3.79359 -0.687256 0)
(-3.16218 -0.654402 0)
(-2.63143 -0.579791 0)
(-2.12751 -0.565442 0)
(-1.55566 -0.517908 0)
(-1.10005 -0.45581 0)
(-0.746828 -0.370864 0)
(-0.489221 -0.296691 0)
(-0.293909 -0.222876 0)
(-0.169611 -0.159469 0)
(-0.0968469 -0.101775 0)
(-0.0825446 -0.0629932 0)
(-0.126742 -0.00984074 0)
(-0.207293 0.0250591 0)
(-0.331708 0.0623014 0)
(-0.491483 0.0986179 0)
(-0.693367 0.129907 0)
(-0.952844 0.16491 0)
(-1.22566 0.165359 0)
(-1.44987 0.171817 0)
(-1.68744 0.185086 0)
(-1.94771 0.202181 0)
(-2.22092 0.22652 0)
(-2.51438 0.252339 0)
(-2.81816 0.27988 0)
(-3.13201 0.303179 0)
(-3.44803 0.319206 0)
(-3.75894 0.32489 0)
(-4.05631 0.319377 0)
(-4.33112 0.300705 0)
(-4.57311 0.269186 0)
(-4.77704 0.225945 0)
(-4.93765 0.173154 0)
(-5.05124 0.109439 0)
(-5.12007 0.0408712 0)
(-5.14401 -0.0245488 0)
(-5.11438 -0.0930313 0)
(-5.05006 -0.160364 0)
(-4.94085 -0.209897 0)
(-4.81184 -0.251465 0)
(-4.65851 -0.263189 0)
(-4.47514 -0.26785 0)
(-4.24734 -0.251577 0)
(-4.0425 -0.258604 0)
(-3.90104 -0.253969 0)
(-3.80747 -0.226116 0)
(-3.7655 -0.186496 0)
(-3.77151 -0.129934 0)
(-3.85473 -0.0679341 0)
(-4.00347 0.00493484 0)
(-4.23171 0.0805089 0)
(-4.53903 0.171219 0)
(-4.92205 0.248376 0)
(-5.37845 0.328909 0)
(-5.89758 0.39156 0)
(-6.47419 0.446513 0)
(-7.09381 0.480702 0)
(-7.74945 0.501568 0)
(-8.42539 0.505105 0)
(-9.11456 0.497395 0)
(-9.80019 0.479589 0)
(-10.4735 0.456916 0)
(-11.1124 0.432868 0)
(-11.7125 0.421721 0)
(-12.2381 0.425712 0)
(-12.6914 0.430021 0)
(-13.0555 0.433808 0)
(-13.3335 0.433819 0)
(-13.5264 0.401094 0)
(-13.6395 0.382545 0)
(-13.6468 0.363835 0)
(-13.5259 0.307242 0)
(-13.3708 0.249717 0)
(-13.1064 0.179687 0)
(-12.7824 0.121016 0)
(-12.3822 0.0355464 0)
(-11.9358 -0.0389371 0)
(-11.4456 -0.125637 0)
(-10.9385 -0.207165 0)
(-10.407 -0.283612 0)
(-9.86401 -0.353712 0)
(-9.321 -0.415314 0)
(-8.76021 -0.465902 0)
(-8.2585 -0.529488 0)
(-7.77707 -0.546765 0)
(-7.25261 -0.550193 0)
(-6.72745 -0.54182 0)
(-6.20432 -0.527945 0)
(-5.69512 -0.50989 0)
(-5.20406 -0.488953 0)
(-4.7349 -0.465725 0)
(-4.29121 -0.440408 0)
(-3.87597 -0.413307 0)
(-3.49246 -0.384298 0)
(-3.144 -0.353888 0)
(-2.8334 -0.321713 0)
(-2.56423 -0.288367 0)
(-2.33831 -0.253497 0)
(-2.15783 -0.21907 0)
(-2.02178 -0.184517 0)
(-1.92518 -0.152624 0)
(-1.86613 -0.119259 0)
(-1.83342 -0.0891934 0)
(-1.83795 -0.0601416 0)
(-1.87838 -0.0342569 0)
(-1.94835 0.0101606 0)
(-2.05167 0.0527235 0)
(-2.19142 0.0980207 0)
(-2.35706 0.146969 0)
(-2.56468 0.191264 0)
(-2.78784 0.232074 0)
(-3.03843 0.26465 0)
(-3.30123 0.290735 0)
(-3.5743 0.307597 0)
(-3.85149 0.316901 0)
(-4.12458 0.31738 0)
(-4.3917 0.311134 0)
(-4.64463 0.298421 0)
(-4.88107 0.280546 0)
(-5.09752 0.259126 0)
(-5.29345 0.235209 0)
(-5.46641 0.209795 0)
(-5.61802 0.183587 0)
(-5.74812 0.157515 0)
(-5.85829 0.132147 0)
(-5.94949 0.108095 0)
(-6.02331 0.0857174 0)
(-6.08079 0.0651361 0)
(-6.12379 0.0464636 0)
(-6.15299 0.0291566 0)
(-6.17059 0.0137371 0)
(-6.17769 0.00166933 0)
(-6.17275 -0.01075 0)
(-6.15997 -0.0211285 0)
(-6.14 -0.0298532 0)
(-6.11481 -0.0373589 0)
(-6.08442 -0.0435874 0)
(-6.05061 -0.0485524 0)
(-6.01365 -0.0523865 0)
(-5.97485 -0.0550928 0)
(-5.93467 -0.0568212 0)
(-5.89401 -0.0576307 0)
(-5.85335 -0.0576565 0)
(-5.81331 -0.0569883 0)
(-5.77428 -0.0557462 0)
(-5.73666 -0.0540282 0)
(-5.70071 -0.0519365 0)
(-5.66667 -0.0495593 0)
(-5.63468 -0.0469795 0)
(-5.60485 -0.0442696 0)
(-5.5772 -0.0414935 0)
(-5.55176 -0.0387053 0)
(-5.52848 -0.0359503 0)
(-5.50731 -0.0332664 0)
(-5.48816 -0.0306838 0)
(-5.47093 -0.0282244 0)
(-5.45551 -0.0259023 0)
(-5.44177 -0.0237278 0)
(-5.4296 -0.0217088 0)
(-5.41885 -0.0198514 0)
(-5.4094 -0.0181579 0)
(-5.40113 -0.0166262 0)
(-5.3939 -0.0152513 0)
(-5.38759 -0.0140256 0)
(-5.38211 -0.0129405 0)
(-5.37734 -0.0119866 0)
(-5.37319 -0.0111535 0)
(-5.36958 -0.0104307 0)
(-5.36641 -0.00980957 0)
(-5.36363 -0.00928025 0)
(-5.36117 -0.00883315 0)
(-5.35897 -0.00845976 0)
(-5.35698 -0.00815157 0)
(-5.35516 -0.00789979 0)
(-5.35347 -0.00769563 0)
(-5.35188 -0.00753153 0)
(-5.35037 -0.00740016 0)
(-5.34891 -0.00729585 0)
(-5.34749 -0.00721278 0)
(-5.3461 -0.00714622 0)
(-5.34473 -0.00709112 0)
(-5.34337 -0.00704331 0)
(-5.34202 -0.00699884 0)
(-5.34068 -0.00695486 0)
(-5.33935 -0.006909 0)
(-5.33803 -0.00685916 0)
(-5.33673 -0.00680376 0)
(-5.33545 -0.00674145 0)
(-5.3342 -0.00667155 0)
(-5.33297 -0.00659369 0)
(-5.33178 -0.00650795 0)
(-5.33063 -0.00641457 0)
(-5.32953 -0.0063141 0)
(-5.32848 -0.00620739 0)
(-5.32747 -0.0060954 0)
(-5.32652 -0.00597916 0)
(-5.32563 -0.00585985 0)
(-5.32479 -0.00573885 0)
(-5.32401 -0.00561773 0)
(-5.32328 -0.00549804 0)
(-5.32261 -0.00538103 0)
(-5.32198 -0.00526733 0)
(-5.3214 -0.00515712 0)
(-5.32087 -0.00505049 0)
(-5.32037 -0.00494773 0)
(-5.31992 -0.00484936 0)
(-5.31949 -0.00475592 0)
(-5.3191 -0.00466779 0)
(-5.31873 -0.00458507 0)
(-5.31838 -0.00450752 0)
(-5.31805 -0.00443486 0)
(-5.31773 -0.00436687 0)
(-5.31743 -0.00430324 0)
(-5.31714 -0.00424353 0)
(-5.31685 -0.00418713 0)
(-5.31656 -0.00413346 0)
(-5.31628 -0.00408195 0)
(-5.31601 -0.004032 0)
(-5.31573 -0.00398312 0)
(-5.31545 -0.00393509 0)
(-5.31518 -0.00388795 0)
(-5.3149 -0.00384183 0)
(-5.31462 -0.0037968 0)
(-5.31434 -0.00375288 0)
(-5.31405 -0.00370996 0)
(-5.31376 -0.00366788 0)
(-5.31347 -0.00362641 0)
(-5.31317 -0.00358538 0)
(-5.31287 -0.00354466 0)
(-5.31257 -0.00350408 0)
(-5.31226 -0.00346357 0)
(-5.31195 -0.00342317 0)
(-5.31163 -0.00338291 0)
(-5.31131 -0.00334288 0)
(-5.31099 -0.00330314 0)
(-5.31066 -0.00326365 0)
(-5.31033 -0.00322422 0)
(-5.30999 -0.00318443 0)
(-5.30965 -0.00314381 0)
(-5.30931 -0.00310229 0)
(-5.30896 -0.00306014 0)
(-5.30862 -0.00301787 0)
(-5.30827 -0.00297613 0)
(-5.30791 -0.00293555 0)
(-5.30755 -0.00289627 0)
(-5.30719 -0.00285822 0)
(-5.30681 -0.00282156 0)
(-5.30643 -0.00278661 0)
(-5.30604 -0.00275328 0)
(-5.30563 -0.00272157 0)
(-5.30522 -0.00269183 0)
(-5.30478 -0.00266433 0)
(-5.30433 -0.00264006 0)
(-5.30386 -0.00262006 0)
(-5.30336 -0.00260486 0)
(-5.30283 -0.00259547 0)
(-5.30227 -0.00259093 0)
(-5.30168 -0.00259034 0)
(-5.30104 -0.00259786 0)
(-5.30036 -0.00259685 0)
(-5.29963 -0.00262022 0)
(-5.29884 -0.00262587 0)
(-5.29801 -0.00264966 0)
(-5.2971 -0.00267043 0)
(-5.29613 -0.00270095 0)
(-5.29508 -0.00273751 0)
(-5.29394 -0.00278253 0)
(-5.29271 -0.00283945 0)
(-5.29136 -0.00290796 0)
(-5.28988 -0.00299345 0)
(-5.28826 -0.00309653 0)
(-5.28646 -0.00322241 0)
(-5.28447 -0.00337425 0)
(-5.28225 -0.00355732 0)
(-5.27976 -0.00377556 0)
(-5.27698 -0.00403221 0)
(-5.27386 -0.00433021 0)
(-5.27034 -0.004672 0)
(-5.26638 -0.00506298 0)
(-5.2619 -0.00550917 0)
(-5.25683 -0.0060215 0)
(-5.25107 -0.00661036 0)
(-5.24454 -0.00729201 0)
(-5.23706 -0.00808163 0)
(-5.22854 -0.00899991 0)
(-5.21868 -0.0100602 0)
(-5.20744 -0.011248 0)
(-5.19426 -0.0124924 0)
(-5.17929 -0.0135507 0)
(-5.16129 -0.0140536 0)
(-5.14093 -0.0132524 0)
(-5.11509 -0.0112191 0)
(-5.08563 -0.00819425 0)
(-5.04258 -0.00930282 0)
(-4.99222 -0.0217953 0)
(-4.90497 -0.0536541 0)
(-4.81505 -0.11655 0)
(-4.62665 -0.187069 0)
(-4.48548 -0.280708 0)
(-4.11384 -0.306378 0)
(-3.96667 -0.339916 0)
(-3.46108 -0.30826 0)
(-0.0302693 -0.0795848 0)
(-0.0167161 -0.231244 0)
(0.107734 -0.376419 0)
(0.276865 -0.476674 0)
(0.494414 -0.512222 0)
(0.694741 -0.478537 0)
(0.879472 -0.407075 0)
(1.01834 -0.304407 0)
(1.1142 -0.192921 0)
(1.16662 -0.0956486 0)
(1.17795 -0.0153954 0)
(1.13877 0.0375476 0)
(1.06135 0.0607428 0)
(0.965956 0.0611539 0)
(0.860626 0.0328278 0)
(0.775329 -0.0105985 0)
(0.710811 -0.0752298 0)
(0.698418 -0.153979 0)
(0.746467 -0.256105 0)
(0.833858 -0.378247 0)
(0.980429 -0.499684 0)
(1.18835 -0.622733 0)
(1.4491 -0.738919 0)
(1.74926 -0.81762 0)
(2.05716 -0.845321 0)
(2.33687 -0.788674 0)
(2.52187 -0.644369 0)
(2.57683 -0.415598 0)
(2.52824 -0.146788 0)
(2.40623 0.141307 0)
(2.05684 0.436106 0)
(1.38691 0.67143 0)
(0.429608 0.889229 0)
(-0.880627 1.17941 0)
(-2.6095 1.61834 0)
(-4.85374 2.26454 0)
(-7.63278 2.9051 0)
(-10.7692 3.64002 0)
(-14.0742 4.36022 0)
(-17.3597 4.82263 0)
(-20.3865 4.975 0)
(-23.0192 4.86459 0)
(-25.141 4.61001 0)
(-26.7637 4.28803 0)
(-27.9241 3.91595 0)
(-28.6227 3.42208 0)
(-29.1069 2.89167 0)
(-29.4552 2.36927 0)
(-29.6224 1.84123 0)
(-29.6538 1.32387 0)
(-29.4725 0.80483 0)
(-29.1162 0.284377 0)
(-28.599 -0.259873 0)
(-27.9693 -0.788469 0)
(-27.1558 -1.29823 0)
(-26.173 -1.82311 0)
(-25.0105 -2.3407 0)
(-23.6899 -2.87268 0)
(-22.2239 -3.30973 0)
(-20.6763 -3.68987 0)
(-19.0601 -3.95793 0)
(-17.3958 -4.15308 0)
(-15.692 -4.26597 0)
(-13.961 -4.30664 0)
(-12.2232 -4.29051 0)
(-10.5062 -4.21973 0)
(-8.82661 -4.09989 0)
(-7.20074 -3.93934 0)
(-5.63936 -3.74145 0)
(-4.14786 -3.51765 0)
(-2.7337 -3.25705 0)
(-1.39536 -2.97521 0)
(-0.144399 -2.61179 0)
(1.00166 -2.35094 0)
(2.06708 -2.1303 0)
(3.073 -1.92582 0)
(4.0133 -1.7292 0)
(4.90349 -1.51891 0)
(5.72851 -1.28907 0)
(6.49629 -1.03792 0)
(7.19427 -0.764073 0)
(7.8206 -0.482852 0)
(8.3497 -0.198358 0)
(8.75069 -0.01671 0)
(8.92339 0.164631 0)
(8.89405 0.219233 0)
(8.6982 0.292802 0)
(8.39823 0.225435 0)
(8.03334 0.0328655 0)
(7.61935 -0.209379 0)
(7.18705 -0.364494 0)
(6.70933 -0.401976 0)
(6.14895 -0.258944 0)
(5.44194 0.18245 0)
(4.4427 0.891274 0)
(2.77918 1.6831 0)
(0.624159 2.39772 0)
(-1.91655 3.10458 0)
(-4.68822 3.72408 0)
(-7.52737 4.26313 0)
(-10.1869 4.51381 0)
(-12.4914 4.602 0)
(-14.3659 4.43306 0)
(-15.8255 4.08867 0)
(-16.9485 3.58555 0)
(-17.7488 2.98744 0)
(-18.2563 2.34941 0)
(-18.643 1.69973 0)
(-18.7439 1.01897 0)
(-18.7095 0.286611 0)
(-18.3681 -0.568532 0)
(-17.6421 -1.40334 0)
(-16.5943 -2.21528 0)
(-15.3139 -2.89868 0)
(-13.874 -3.4547 0)
(-12.2846 -3.87699 0)
(-10.5514 -4.19047 0)
(-8.70323 -4.38038 0)
(-6.77282 -4.46954 0)
(-4.80743 -4.43386 0)
(-2.83507 -4.29183 0)
(-0.888675 -3.92938 0)
(0.947666 -3.66731 0)
(2.69251 -3.42856 0)
(4.3491 -3.17012 0)
(5.9038 -2.91109 0)
(7.35838 -2.63935 0)
(8.72226 -2.33378 0)
(9.95707 -1.98726 0)
(11.083 -1.62221 0)
(12.0699 -1.24973 0)
(12.9459 -0.907001 0)
(13.6585 -0.514778 0)
(14.2116 -0.0976644 0)
(14.634 0.229766 0)
(14.8596 0.57746 0)
(14.8442 0.924107 0)
(14.5846 1.21841 0)
(14.1008 1.47152 0)
(13.3822 1.67688 0)
(12.4424 1.82257 0)
(11.3107 1.89625 0)
(10.0326 1.88561 0)
(8.6684 1.78143 0)
(7.28016 1.60261 0)
(5.92653 1.38582 0)
(4.65781 1.19372 0)
(3.5124 1.03648 0)
(2.51754 0.935276 0)
(1.67193 0.851882 0)
(0.913996 0.851442 0)
(0.20369 0.865477 0)
(-0.450598 0.886531 0)
(-1.07566 0.882846 0)
(-1.67982 0.85897 0)
(-2.22908 0.785701 0)
(-2.70192 0.706021 0)
(-3.13324 0.626717 0)
(-3.52366 0.56042 0)
(-3.8989 0.509617 0)
(-4.26641 0.47463 0)
(-4.64207 0.454892 0)
(-5.03983 0.449586 0)
(-5.47184 0.460197 0)
(-5.94778 0.48488 0)
(-6.4718 0.530014 0)
(-7.04608 0.596752 0)
(-7.67046 0.684299 0)
(-8.34324 0.788608 0)
(-9.05907 0.905404 0)
(-9.80653 1.02874 0)
(-10.5688 1.15154 0)
(-11.3227 1.26236 0)
(-12.0419 1.34978 0)
(-12.7048 1.39973 0)
(-13.2854 1.39856 0)
(-13.7754 1.34343 0)
(-14.1787 1.20921 0)
(-14.4951 1.03071 0)
(-14.7035 0.823967 0)
(-14.8173 0.611774 0)
(-14.8128 0.366504 0)
(-14.6691 0.0577809 0)
(-14.4079 -0.266983 0)
(-14.0281 -0.550513 0)
(-13.5452 -0.86883 0)
(-12.9144 -1.16414 0)
(-12.1714 -1.43819 0)
(-11.339 -1.68145 0)
(-10.435 -1.89293 0)
(-9.49614 -2.04655 0)
(-8.53915 -2.12646 0)
(-7.56063 -2.16559 0)
(-6.58467 -2.16869 0)
(-5.62386 -2.1376 0)
(-4.68884 -2.07173 0)
(-3.7847 -1.97989 0)
(-2.92242 -1.85599 0)
(-2.09918 -1.72047 0)
(-1.33819 -1.54074 0)
(-0.617782 -1.37304 0)
(0.0211354 -1.14185 0)
(0.575437 -0.948754 0)
(1.08037 -0.776921 0)
(1.53212 -0.630329 0)
(1.92751 -0.495865 0)
(2.25369 -0.366913 0)
(2.50821 -0.248117 0)
(2.67785 -0.120686 0)
(2.77279 -0.0105687 0)
(2.77556 0.0902614 0)
(2.69809 0.176033 0)
(2.54918 0.262844 0)
(2.3297 0.339926 0)
(2.05149 0.405391 0)
(1.7218 0.46608 0)
(1.34556 0.534987 0)
(0.917572 0.607347 0)
(0.461948 0.66344 0)
(-0.0132587 0.715594 0)
(-0.496707 0.7562 0)
(-0.981388 0.795406 0)
(-1.4664 0.827558 0)
(-1.94519 0.852062 0)
(-2.41243 0.861398 0)
(-2.8587 0.851569 0)
(-3.2802 0.818158 0)
(-3.66535 0.759513 0)
(-4.01209 0.673679 0)
(-4.31046 0.563612 0)
(-4.55716 0.433185 0)
(-4.74543 0.291285 0)
(-4.8844 0.141976 0)
(-4.955 -0.0275471 0)
(-4.94626 -0.197904 0)
(-4.88995 -0.324909 0)
(-4.80567 -0.425929 0)
(-4.68251 -0.491287 0)
(-4.5619 -0.513018 0)
(-4.44926 -0.491614 0)
(-4.4161 -0.438809 0)
(-4.41927 -0.384117 0)
(-4.39216 -0.312589 0)
(-4.44384 -0.248948 0)
(-4.61654 -0.177918 0)
(-4.8641 -0.0849993 0)
(-5.2157 0.0421432 0)
(-5.62939 0.174117 0)
(-6.12936 0.312544 0)
(-6.68719 0.458483 0)
(-7.30357 0.592026 0)
(-7.96797 0.723943 0)
(-8.66405 0.837809 0)
(-9.38158 0.94176 0)
(-10.0997 1.02602 0)
(-10.8046 1.09664 0)
(-11.4762 1.14753 0)
(-12.1056 1.1795 0)
(-12.6774 1.18802 0)
(-13.1864 1.16904 0)
(-13.6183 1.1288 0)
(-13.9665 1.06119 0)
(-14.2575 0.973687 0)
(-14.4838 0.856041 0)
(-14.631 0.718063 0)
(-14.7257 0.581209 0)
(-14.755 0.440517 0)
(-14.6964 0.272804 0)
(-14.557 0.103714 0)
(-14.3387 -0.0684137 0)
(-14.0624 -0.222074 0)
(-13.7155 -0.384238 0)
(-13.3143 -0.530409 0)
(-12.861 -0.679141 0)
(-12.3642 -0.81743 0)
(-11.8137 -0.951398 0)
(-11.216 -1.07553 0)
(-10.5795 -1.18725 0)
(-9.9177 -1.28952 0)
(-9.22873 -1.37755 0)
(-8.54249 -1.45339 0)
(-7.80894 -1.51679 0)
(-7.06338 -1.52966 0)
(-6.36452 -1.5199 0)
(-5.68726 -1.49179 0)
(-5.03247 -1.45287 0)
(-4.39663 -1.40527 0)