/*--------------------------------*- C++ -*----------------------------------*\
| =========                 |                                                 |
| \\      /  F ield         | OpenFOAM: The Open Source CFD Toolbox           |
|  \\    /   O peration     | Version:  v1812                                 |
|   \\  /    A nd           | Web:      www.OpenFOAM.com                      |
|    \\/     M anipulation  |                                                 |
\*---------------------------------------------------------------------------*/
FoamFile
{
    version     2.0;
    format      ascii;
    class       surfaceScalarField;
    location    "0.2";
    object      phi;
}
// * * * * * * * * * * * * * * * * * * * * * * * * * * * * * * * * * * * * * //

dimensions      [1 0 -1 0 0 0 0];
oriented        oriented;


internalField   nonuniform List<scalar> 
128384
(
0.00262501
7.58942e-19
0.00262501
5.42101e-20
0.00262501
-1.24683e-18
0.00262501
2.71051e-19
0.00262501
-1.6263e-19
0.00262501
3.25261e-19
0.00262501
7.58942e-19
0.00262501
5.96311e-19
0.00262501
5.42101e-19
0.00262501
-1.0842e-18
0.00262501
9.21572e-19
0.00262501
1.73472e-18
0.00262501
1.40946e-18
0.00262501
2.71051e-19
0.00262501
2.1684e-19
0.00262501
1.19262e-18
0.00262501
-1.0842e-19
0.00262501
1.13841e-18
0.00262501
-5.42101e-19
0.00262501
-1.68051e-18
0.00262501
-1.40946e-18
0.00262501
4.33681e-19
0.00262501
0
0.00262501
-1.95156e-18
0.00262501
9.75782e-19
0.00262501
2.43945e-18
0.00262501
2.05998e-18
0.00262501
1.95156e-18
0.00262501
2.71051e-19
0.00262501
-9.21572e-19
0.00262501
-1.51788e-18
0.00262501
3.25261e-19
0.00262501
5.42101e-19
0.00262501
4.33681e-19
0.00262501
4.87891e-19
0.00262501
3.79471e-19
0.00262501
-5.42101e-20
0.00262501
-1.95156e-18
0.00262501
-1.6263e-19
0.00262501
5.42101e-19
0.00262501
5.96311e-19
0.00262501
2.71051e-18
0.00262501
-1.19262e-18
0.00262501
4.33681e-19
0.00262501
-5.42101e-20
0.00262501
1.51788e-18
0.00262501
-2.33103e-18
0.00262501
-9.75782e-19
0.00262501
-7.04731e-19
0.00262501
-7.58942e-19
0.00262501
1.0842e-19
0.00262501
1.57209e-18
0.00262501
-1.19262e-18
0.00262501
-4.87891e-19
0.00262501
-2.11419e-18
0.00262501
2.49366e-18
0.00262501
9.21572e-19
0.00262501
1.35525e-18
0.00262501
9.75782e-19
0.00262501
1.19262e-18
0.00262501
-1.13841e-18
0.00262501
0
0.00262501
5.42101e-20
0.00262501
6.50521e-19
0.00262501
-5.42101e-20
0.00262501
7.15573e-18
0.00262501
4.99384e-16
0.00262501
3.56524e-14
0.00262501
2.42e-12
0.00262499
1.60822e-10
0.00262395
1.09684e-08
0.00256618
6.25498e-07
0.00150262
8.79969e-05
0.00118882
0.000102985
0.00117479
8.46525e-05
0.00109913
0.000124659
0.00102228
8.77862e-05
0.000911768
9.84786e-05
0.000797255
0.000104143
0.000707447
9.78573e-05
0.000629363
9.78176e-05
0.000559977
9.27838e-05
0.000502422
7.81489e-05
0.000452097
6.26422e-05
0.000403724
5.35346e-05
0.00035961
5.06717e-05
0.000324904
5.07704e-05
0.000298869
5.21321e-05
0.000275541
5.28806e-05
0.00024668
5.38915e-05
0.000207005
5.44458e-05
0.00015692
5.47404e-05
0.000104814
5.43712e-05
5.72927e-05
5.43447e-05
2.41483e-05
5.423e-05
5.70351e-05
0.00262501
1.0842e-19
0.00262501
-4.33681e-19
0.00262501
1.6263e-19
0.00262501
-3.79471e-19
0.00262501
-1.24683e-18
0.00262501
-5.96311e-19
0.00262501
-1.19262e-18
0.00262501
-2.00577e-18
0.00262501
-2.43945e-18
0.00262501
-5.96311e-19
0.00262501
1.57209e-18
0.00262501
3.25261e-19
0.00262501
-1.6263e-19
0.00262501
-6.50521e-19
0.00262501
4.33681e-19
0.00262501
-5.96311e-19
0.00262501
-8.13152e-19
0.00262501
-8.67362e-19
0.00262501
-1.24683e-18
0.00262501
3.03577e-18
0.00262501
7.04731e-19
0.00262501
2.49366e-18
0.00262501
1.68051e-18
0.00262501
1.6263e-18
0.00262501
1.13841e-18
0.00262501
7.04731e-19
0.00262501
5.42101e-19
0.00262501
-1.24683e-18
0.00262501
4.33681e-19
0.00262501
1.68051e-18
0.00262501
2.00577e-18
0.00262501
2.1684e-19
0.00262501
1.6263e-19
0.00262501
-4.87891e-19
0.00262501
5.96311e-19
0.00262501
1.40946e-18
0.00262501
2.71051e-19
0.00262501
-1.0842e-19
0.00262501
-4.33681e-19
0.00262501
8.67362e-19
0.00262501
-5.42101e-19
0.00262501
-3.25261e-19
0.00262501
4.06576e-18
0.00262501
-1.6263e-19
0.00262501
1.6263e-19
0.00262501
-2.98156e-18
0.00262501
-9.75782e-19
0.00262501
-1.0842e-18
0.00262501
-2.1684e-19
0.00262501
2.60209e-18
0.00262501
1.57209e-18
0.00262501
9.21572e-19
0.00262501
1.68051e-18
0.00262501
7.04731e-19
0.00262501
3.79471e-19
0.00262501
-6.50521e-19
0.00262501
1.24683e-18
0.00262501
-8.13152e-19
0.00262501
3.25261e-19
0.00262501
0
0.00262501
9.75782e-19
0.00262501
1.6263e-19
0.00262501
1.02999e-18
0.00262501
6.50521e-19
0.00262501
1.46367e-18
0.00262501
6.72205e-18
0.00262501
6.06665e-16
0.00262501
4.18208e-14
0.00262501
2.67485e-12
0.00262499
1.68529e-10
0.00262396
1.05357e-08
0.00256677
5.24351e-07
0.0015599
0.000116814
0.00127984
0.000175139
0.00126558
0.000176959
0.00118416
0.000252131
0.00107019
0.000208786
0.000945412
0.000209881
0.000825193
0.000213637
0.00073103
0.000200483
0.000653064
0.000195879
0.00058868
0.000180685
0.000535482
0.000151727
0.000486026
0.000124078
0.000435698
0.000108818
0.000389066
0.000104049
0.000351955
0.000104392
0.000323893
0.000106453
0.000298588
0.000107764
0.0002676
0.000109909
0.000225547
0.000111058
0.00017216
0.000112385
0.000115124
0.000113043
6.31135e-05
0.000113217
2.56872e-05
0.000112792
0.00011667
0.00262501
-1.84314e-18
0.00262501
1.73472e-18
0.00262501
-8.67362e-19
0.00262501
-2.1684e-19
0.00262501
1.0842e-18
0.00262501
-3.36103e-18
0.00262501
-3.08998e-18
0.00262501
2.71051e-19
0.00262501
1.73472e-18
0.00262501
9.75782e-19
0.00262501
-8.13152e-19
0.00262501
-1.89735e-18
0.00262501
-7.58942e-19
0.00262501
1.02999e-18
0.00262501
5.96311e-19
0.00262501
1.0842e-18
0.00262501
9.21572e-19
0.00262501
5.42101e-19
0.00262501
3.79471e-19
0.00262501
-1.30104e-18
0.00262501
2.71051e-19
0.00262501
1.30104e-18
0.00262501
4.33681e-19
0.00262501
5.42101e-19
0.00262501
8.13152e-19
0.00262501
6.50521e-19
0.00262501
-4.33681e-19
0.00262501
-1.95156e-18
0.00262501
-4.33681e-19
0.00262501
4.87891e-19
0.00262501
1.0842e-18
0.00262501
1.46367e-18
0.00262501
9.21572e-19
0.00262501
1.02999e-18
0.00262501
2.27682e-18
0.00262501
7.58942e-19
0.00262501
-3.79471e-19
0.00262501
2.22261e-18
0.00262501
1.95156e-18
0.00262501
-1.6263e-19
0.00262501
-5.42101e-20
0.00262501
-5.96311e-19
0.00262501
-2.33103e-18
0.00262501
-1.78893e-18
0.00262501
3.25261e-19
0.00262501
2.54788e-18
0.00262501
1.95156e-18
0.00262501
-1.0842e-19
0.00262501
-2.1684e-19
0.00262501
-1.24683e-18
0.00262501
-1.0842e-18
0.00262501
-1.30104e-18
0.00262501
-4.33681e-19
0.00262501
-1.0842e-18
0.00262501
-5.42101e-20
0.00262501
1.02999e-18
0.00262501
5.42101e-19
0.00262501
8.13152e-19
0.00262501
3.79471e-19
0.00262501
2.11419e-18
0.00262501
2.1684e-18
0.00262501
-4.33681e-19
0.00262501
1.0842e-18
0.00262501
3.79471e-19
0.00262501
1.19262e-18
0.00262501
1.29562e-17
0.00262501
6.61851e-16
0.00262501
4.67454e-14
0.00262501
3.08746e-12
0.00262499
2.06707e-10
0.00262397
1.35283e-08
0.00256653
7.76191e-07
0.00154153
0.000160383
0.00126121
0.000246127
0.00125592
0.000265736
0.00118761
0.000364096
0.00107608
0.000324499
0.000955067
0.000316262
0.000839534
0.000319025
0.000745817
0.000303676
0.000666778
0.000295511
0.000600537
0.000270899
0.000541691
0.000230932
0.00048418
0.000193284
0.00042661
0.000170814
0.000375667
0.000161336
0.000336708
0.000159799
0.000308221
0.000161385
0.000283283
0.00016242
0.000253444
0.000164963
0.000212523
0.00016641
0.000160428
0.000168251
0.000105346
0.000168902
5.66997e-05
0.000169346
2.22108e-05
0.000168836
0.000172633
0.00262501
-3.25261e-19
0.00262501
1.84314e-18
0.00262501
2.05998e-18
0.00262501
1.46367e-18
0.00262501
-5.96311e-19
0.00262501
2.1684e-19
0.00262501
-1.0842e-19
0.00262501
1.0842e-19
0.00262501
-1.02999e-18
0.00262501
1.68051e-18
0.00262501
-8.13152e-19
0.00262501
-3.79471e-19
0.00262501
-9.75782e-19
0.00262501
7.04731e-19
0.00262501
-8.67362e-19
0.00262501
-1.19262e-18
0.00262501
1.6263e-19
0.00262501
8.67362e-19
0.00262501
2.71051e-19
0.00262501
2.1684e-19
0.00262501
6.50521e-19
0.00262501
2.1684e-18
0.00262501
4.33681e-19
0.00262501
-5.96311e-19
0.00262501
2.1684e-19
0.00262501
2.1684e-19
0.00262501
3.25261e-19
0.00262501
3.79471e-19
0.00262501
-1.0842e-19
0.00262501
-1.0842e-19
0.00262501
3.79471e-19
0.00262501
1.0842e-19
0.00262501
7.58942e-19
0.00262501
-4.33681e-19
0.00262501
-4.33681e-19
0.00262501
1.0842e-18
0.00262501
3.1984e-18
0.00262501
-5.42101e-20
0.00262501
-1.51788e-18
0.00262501
-1.6263e-18
0.00262501
-1.24683e-18
0.00262501
-1.02999e-18
0.00262501
2.05998e-18
0.00262501
2.1684e-18
0.00262501
6.50521e-19
0.00262501
2.71051e-19
0.00262501
1.0842e-19
0.00262501
-1.02999e-18
0.00262501
9.21572e-19
0.00262501
-1.6263e-19
0.00262501
-5.42101e-19
0.00262501
-2.71051e-19
0.00262501
-7.58942e-19
0.00262501
2.33103e-18
0.00262501
-4.87891e-19
0.00262501
-5.96311e-19
0.00262501
1.30104e-18
0.00262501
8.13152e-19
0.00262501
2.1684e-18
0.00262501
9.75782e-19
0.00262501
-2.1684e-19
0.00262501
4.87891e-19
0.00262501
1.0842e-18
0.00262501
4.33681e-19
0.00262501
1.51788e-18
0.00262501
9.70361e-18
0.00262501
8.20145e-16
0.00262501
5.91389e-14
0.00262501
3.96858e-12
0.00262499
2.72321e-10
0.00262398
1.77146e-08
0.00256691
1.04575e-06
0.00152531
0.00021591
0.0012356
0.000327763
0.00123277
0.000353336
0.00117037
0.000467786
0.00106344
0.000431936
0.000946588
0.000417526
0.000837059
0.000420465
0.000748147
0.000404233
0.000673446
0.000392073
0.000608632
0.000360255
0.000547467
0.000312342
0.000486774
0.000265335
0.000427472
0.000234265
0.000377181
0.000218015
0.00033986
0.000213862
0.000312757
0.000215213
0.000288463
0.000216545
0.000258635
0.000219855
0.000217152
0.000222018
0.000164386
0.00022458
0.000108739
0.000225693
5.94578e-05
0.000227293
2.4335e-05
0.000226183
0.000229785
0.00262501
8.67362e-19
0.00262501
-2.1684e-18
0.00262501
0
0.00262501
-1.84314e-18
0.00262501
-2.1684e-19
0.00262501
3.57787e-18
0.00262501
7.58942e-19
0.00262501
5.42101e-20
0.00262501
5.42101e-20
0.00262501
-5.42101e-20
0.00262501
2.00577e-18
0.00262501
2.71051e-19
0.00262501
3.79471e-19
0.00262501
-8.67362e-19
0.00262501
-1.30104e-18
0.00262501
-1.0842e-18
0.00262501
-2.76472e-18
0.00262501
-1.6263e-19
0.00262501
8.67362e-19
0.00262501
8.13152e-19
0.00262501
-5.96311e-19
0.00262501
1.6263e-19
0.00262501
-2.71051e-19
0.00262501
1.6263e-19
0.00262501
2.71051e-19
0.00262501
3.79471e-19
0.00262501
5.42101e-20
0.00262501
-1.68051e-18
0.00262501
7.58942e-19
0.00262501
1.73472e-18
0.00262501
-9.21572e-19
0.00262501
-3.03577e-18
0.00262501
-1.30104e-18
0.00262501
-9.21572e-19
0.00262501
-1.0842e-19
0.00262501
-6.50521e-19
0.00262501
-8.13152e-19
0.00262501
5.96311e-19
0.00262501
2.1684e-19
0.00262501
-5.42101e-19
0.00262501
1.0842e-19
0.00262501
1.0842e-18
0.00262501
6.50521e-19
0.00262501
-5.42101e-19
0.00262501
3.1984e-18
0.00262501
2.71051e-19
0.00262501
-3.41524e-18
0.00262501
1.57209e-18
0.00262501
-1.73472e-18
0.00262501
3.25261e-19
0.00262501
9.75782e-19
0.00262501
1.6263e-19
0.00262501
3.25261e-19
0.00262501
-9.75782e-19
0.00262501
2.22261e-18
0.00262501
1.68051e-18
0.00262501
-1.78893e-18
0.00262501
6.50521e-19
0.00262501
1.6263e-18
0.00262501
1.73472e-18
0.00262501
2.43945e-18
0.00262501
1.73472e-18
0.00262501
1.84314e-18
0.00262501
1.13841e-18
0.00262501
3.79471e-19
0.00262501
1.40404e-17
0.00262501
9.3133e-16
0.00262501
6.83124e-14
0.00262501
4.62001e-12
0.00262499
3.23396e-10
0.00262401
2.06633e-08
0.00256758
1.28379e-06
0.00153141
0.000259975
0.00124388
0.000411567
0.00123409
0.00045054
0.00116642
0.000574064
0.00106069
0.000534638
0.000947041
0.000515032
0.000844289
0.000518707
0.000761691
0.000501437
0.000691959
0.000485417
0.000627777
0.000449376
0.000563025
0.000396986
0.00049691
0.000342325
0.000432639
0.000302375
0.00037949
0.000277552
0.000341212
0.000269107
0.00031386
0.000269591
0.00028907
0.000271124
0.000258884
0.000275007
0.000217307
0.000277821
0.000164647
0.000281314
0.000109095
0.000282989
5.9261e-05
0.000286341
2.41077e-05
0.000284716
0.000285096
0.00262501
-4.87891e-19
0.00262501
6.50521e-19
0.00262501
-1.78893e-18
0.00262501
-2.71051e-19
0.00262501
5.42101e-20
0.00262501
6.50521e-19
0.00262501
0
0.00262501
4.87891e-19
0.00262501
-7.58942e-19
0.00262501
5.96311e-19
0.00262501
2.1684e-19
0.00262501
3.25261e-19
0.00262501
2.1684e-19
0.00262501
-8.67362e-19
0.00262501
-1.02999e-18
0.00262501
-1.51788e-18
0.00262501
2.05998e-18
0.00262501
-2.71051e-19
0.00262501
1.40946e-18
0.00262501
1.13841e-18
0.00262501
-9.21572e-19
0.00262501
0
0.00262501
2.1684e-19
0.00262501
1.6263e-19
0.00262501
1.46367e-18
0.00262501
4.33681e-19
0.00262501
-1.40946e-18
0.00262501
-7.04731e-19
0.00262501
1.02999e-18
0.00262501
-7.58942e-19
0.00262501
3.25261e-19
0.00262501
-3.79471e-19
0.00262501
-8.13152e-19
0.00262501
3.25261e-19
0.00262501
2.71051e-19
0.00262501
-7.58942e-19
0.00262501
0
0.00262501
1.0842e-19
0.00262501
1.0842e-19
0.00262501
1.30104e-18
0.00262501
-1.13841e-18
0.00262501
-9.75782e-19
0.00262501
-6.50521e-19
0.00262501
2.05998e-18
0.00262501
-1.78893e-18
0.00262501
1.35525e-18
0.00262501
1.46367e-18
0.00262501
5.42101e-19
0.00262501
1.57209e-18
0.00262501
2.00577e-18
0.00262501
7.04731e-19
0.00262501
-1.24683e-18
0.00262501
5.96311e-19
0.00262501
9.21572e-19
0.00262501
5.96311e-19
0.00262501
2.1684e-19
0.00262501
1.19262e-18
0.00262501
3.79471e-19
0.00262501
5.96311e-19
0.00262501
2.71051e-19
0.00262501
3.79471e-19
0.00262501
1.02999e-18
0.00262501
1.02999e-18
0.00262501
-3.25261e-19
0.00262501
1.46367e-18
0.00262501
1.4203e-17
0.00262501
9.63259e-16
0.00262501
7.18011e-14
0.00262501
4.94661e-12
0.00262499
3.57279e-10
0.00262406
2.27342e-08
0.00256863
1.52253e-06
0.00154088
0.000288903
0.00127008
0.000484324
0.00124596
0.000562256
0.00117161
0.000683216
0.00106669
0.000633945
0.000953907
0.000611331
0.000855555
0.000616553
0.000775855
0.000598467
0.000708462
0.000578964
0.000642263
0.000540493
0.000572985
0.000485363
0.000502298
0.000423409
0.000434537
0.000373855
0.000379513
0.00033906
0.000340982
0.00032518
0.000313519
0.000324014
0.000288447
0.000325932
0.000258105
0.000330619
0.000216768
0.000333904
0.000164849
0.000338151
0.000109004
0.000340815
6.0488e-05
0.000343461
2.68818e-05
0.000343943
0.000340634
0.00262501
-1.6263e-19
0.00262501
-1.6263e-19
0.00262501
4.87891e-19
0.00262501
1.35525e-18
0.00262501
-1.0842e-19
0.00262501
1.6263e-19
0.00262501
-2.1684e-19
0.00262501
4.33681e-19
0.00262501
5.96311e-19
0.00262501
8.13152e-19
0.00262501
-8.67362e-19
0.00262501
-1.0842e-19
0.00262501
-2.1684e-19
0.00262501
2.71051e-19
0.00262501
2.71051e-19
0.00262501
-2.1684e-19
0.00262501
-1.0842e-18
0.00262501
2.71051e-19
0.00262501
-8.67362e-19
0.00262501
-9.21572e-19
0.00262501
1.40946e-18
0.00262501
9.75782e-19
0.00262501
-1.19262e-18
0.00262501
-3.79471e-19
0.00262501
4.33681e-19
0.00262501
-2.1684e-19
0.00262501
3.36103e-18
0.00262501
-1.13841e-18
0.00262501
-2.6563e-18
0.00262501
-1.46367e-18
0.00262501
4.33681e-19
0.00262501
1.0842e-19
0.00262501
8.67362e-19
0.00262501
-2.98156e-18
0.00262501
2.71051e-19
0.00262501
2.71051e-19
0.00262501
5.42101e-20
0.00262501
-4.33681e-19
0.00262501
1.40946e-18
0.00262501
7.04731e-19
0.00262501
1.51788e-18
0.00262501
1.84314e-18
0.00262501
8.13152e-19
0.00262501
1.0842e-18
0.00262501
1.68051e-18
0.00262501
7.58942e-19
0.00262501
1.40946e-18
0.00262501
1.0842e-18
0.00262501
3.41524e-18
0.00262501
-4.87891e-19
0.00262501
-1.0842e-19
0.00262501
8.67362e-19
0.00262501
-1.46367e-18
0.00262501
5.96311e-19
0.00262501
-5.42101e-20
0.00262501
-4.33681e-19
0.00262501
2.71051e-19
0.00262501
1.0842e-19
0.00262501
-2.1684e-19
0.00262501
2.1684e-19
0.00262501
-1.24683e-18
0.00262501
1.13841e-18
0.00262501
-2.1684e-19
0.00262501
7.58942e-19
0.00262501
7.04731e-19
0.00262501
9.86624e-18
0.00262501
9.22114e-16
0.00262501
7.0211e-14
0.00262501
4.9635e-12
0.002625
3.71457e-10
0.00262412
2.37666e-08
0.00257061
1.73074e-06
0.00155559
0.000301389
0.00130447
0.000542956
0.00126187
0.000687121
0.00117931
0.000794001
0.0010748
0.000729662
0.000963666
0.000708696
0.000870291
0.000716149
0.000792752
0.000695786
0.000726661
0.000672558
0.000660608
0.000631427
0.000590028
0.000573697
0.000517614
0.000505776
0.00044766
0.000447984
0.000390055
0.000403798
0.000349455
0.000383458
0.000321267
0.000379468
0.000295243
0.000381663
0.000263596
0.000387258
0.000222406
0.000391581
0.000169856
0.000395959
0.000111652
0.000399168
6.28832e-05
0.000398783
2.73364e-05
0.000402718
0.000401023
0.00262501
6.50521e-19
0.00262501
1.6263e-19
0.00262501
5.42101e-20
0.00262501
1.6263e-19
0.00262501
-5.42101e-20
0.00262501
-4.33681e-19
0.00262501
9.75782e-19
0.00262501
2.92735e-18
0.00262501
1.19262e-18
0.00262501
9.21572e-19
0.00262501
5.42101e-20
0.00262501
-1.0842e-19
0.00262501
-1.51788e-18
0.00262501
-4.87891e-19
0.00262501
-1.51788e-18
0.00262501
1.73472e-18
0.00262501
1.02999e-18
0.00262501
-4.87891e-19
0.00262501
-1.19262e-18
0.00262501
5.42101e-19
0.00262501
-1.0842e-18
0.00262501
-4.33681e-19
0.00262501
3.79471e-19
0.00262501
7.58942e-19
0.00262501
-2.76472e-18
0.00262501
7.58942e-19
0.00262501
5.42101e-20
0.00262501
-1.13841e-18
0.00262501
5.42101e-20
0.00262501
1.57209e-18
0.00262501
-2.71051e-19
0.00262501
2.05998e-18
0.00262501
1.46367e-18
0.00262501
2.81893e-18
0.00262501
-8.13152e-19
0.00262501
5.42101e-19
0.00262501
6.50521e-19
0.00262501
3.79471e-19
0.00262501
-1.6263e-19
0.00262501
3.25261e-19
0.00262501
-7.58942e-19
0.00262501
-1.84314e-18
0.00262501
-3.79471e-19
0.00262501
-3.25261e-19
0.00262501
9.21572e-19
0.00262501
3.1984e-18
0.00262501
2.27682e-18
0.00262501
2.43945e-18
0.00262501
2.71051e-19
0.00262501
4.39102e-18
0.00262501
2.38524e-18
0.00262501
1.46367e-18
0.00262501
1.02999e-18
0.00262501
-1.30104e-18
0.00262501
-1.73472e-18
0.00262501
-5.42101e-20
0.00262501
5.42101e-19
0.00262501
-3.25261e-19
0.00262501
-2.1684e-19
0.00262501
4.33681e-19
0.00262501
-1.0842e-19
0.00262501
5.42101e-20
0.00262501
6.50521e-19
0.00262501
1.78893e-18
0.00262501
1.57209e-18
0.00262501
1.07336e-17
0.00262501
8.11254e-16
0.00262501
6.29486e-14
0.00262501
4.59266e-12
0.002625
3.54605e-10
0.00262422
2.3194e-08
0.00257423
1.84481e-06
0.00158548
0.000292705
0.0013447
0.000595263
0.00128378
0.000815272
0.00119319
0.000900809
0.00108489
0.000822392
0.000977691
0.000808703
0.000888981
0.000818298
0.00081487
0.00079365
0.000748735
0.000766023
0.00068191
0.000722181
0.000609726
0.000662679
0.000534384
0.000591001
0.000460727
0.000526711
0.000398678
0.000473666
0.000354426
0.000445337
0.000324875
0.00043668
0.000297818
0.00043841
0.000265475
0.000444684
0.000224768
0.000449476
0.00017077
0.000454096
0.000111461
0.000456295
6.21023e-05
0.000454681
2.68044e-05
0.000460642
0.000465455
0.00262501
2.1684e-19
0.00262501
4.33681e-19
0.00262501
5.96311e-19
0.00262501
0
0.00262501
1.68051e-18
0.00262501
-8.67362e-19
0.00262501
-2.60209e-18
0.00262501
2.71051e-19
0.00262501
8.13152e-19
0.00262501
2.1684e-19
0.00262501
1.46367e-18
0.00262501
-3.25261e-19
0.00262501
1.6263e-19
0.00262501
-2.22261e-18
0.00262501
3.25261e-19
0.00262501
-1.30104e-18
0.00262501
-5.42101e-20
0.00262501
1.89735e-18
0.00262501
2.71051e-19
0.00262501
-3.14419e-18
0.00262501
-1.24683e-18
0.00262501
-1.46367e-18
0.00262501
-1.40946e-18
0.00262501
0
0.00262501
-1.68051e-18
0.00262501
-8.67362e-19
0.00262501
-2.81893e-18
0.00262501
2.71051e-19
0.00262501
1.6263e-18
0.00262501
1.68051e-18
0.00262501
1.46367e-18
0.00262501
1.0842e-18
0.00262501
3.79471e-19
0.00262501
-2.33103e-18
0.00262501
-1.30104e-18
0.00262501
8.13152e-19
0.00262501
-3.79471e-19
0.00262501
-2.33103e-18
0.00262501
-1.95156e-18
0.00262501
-3.79471e-19
0.00262501
3.79471e-19
0.00262501
1.35525e-18
0.00262501
-7.04731e-19
0.00262501
-1.89735e-18
0.00262501
-4.87891e-19
0.00262501
-1.19262e-18
0.00262501
1.46367e-18
0.00262501
7.04731e-19
0.00262501
1.0842e-19
0.00262501
4.87891e-19
0.00262501
1.78893e-18
0.00262501
1.95156e-18
0.00262501
9.21572e-19
0.00262501
6.50521e-19
0.00262501
3.84892e-18
0.00262501
5.42101e-19
0.00262501
-1.68051e-18
0.00262501
-3.79471e-19
0.00262501
-5.96311e-19
0.00262501
-2.33103e-18
0.00262501
4.87891e-19
0.00262501
5.42101e-20
0.00262501
-1.57209e-18
0.00262501
-7.58942e-19
0.00262501
-1.6263e-19
0.00262501
9.1073e-18
0.00262501
6.29867e-16
0.00262501
5.07477e-14
0.00262501
3.81943e-12
0.002625
3.02205e-10
0.00262435
2.02859e-08
0.00258038
1.74659e-06
0.0016491
0.000257661
0.00139402
0.000647862
0.0013042
0.000945422
0.00120899
0.000999683
0.00110009
0.00091149
0.000998447
0.000913273
0.000913209
0.000923218
0.000841613
0.000891506
0.000774136
0.00085981
0.000704781
0.000814003
0.000630475
0.000753176
0.000553317
0.000678495
0.000477794
0.00060829
0.000412427
0.000547493
0.000364484
0.000510953
0.000332419
0.00049631
0.000304471
0.000496436
0.000271965
0.000502973
0.000230418
0.000507546
0.000174323
0.000512439
0.000113472
0.000514482
5.92385e-05
0.000516451
2.35995e-05
0.000521412
0.00052737
0.00262501
-8.67362e-19
0.00262501
-1.68051e-18
0.00262501
-3.25261e-19
0.00262501
-1.46367e-18
0.00262501
-1.73472e-18
0.00262501
2.71051e-18
0.00262501
2.71051e-18
0.00262501
-4.33681e-19
0.00262501
-8.13152e-19
0.00262501
-1.24683e-18
0.00262501
-1.46367e-18
0.00262501
-9.21572e-19
0.00262501
-5.42101e-20
0.00262501
8.67362e-19
0.00262501
-5.42101e-19
0.00262501
0
0.00262501
-2.1684e-19
0.00262501
-7.58942e-19
0.00262501
-7.58942e-19
0.00262501
-9.21572e-19
0.00262501
-5.42101e-20
0.00262501
-1.24683e-18
0.00262501
-8.67362e-19
0.00262501
-9.75782e-19
0.00262501
1.0842e-19
0.00262501
-4.87891e-19
0.00262501
1.35525e-18
0.00262501
2.92735e-18
0.00262501
1.02999e-18
0.00262501
1.95156e-18
0.00262501
1.30104e-18
0.00262501
-9.75782e-19
0.00262501
4.33681e-19
0.00262501
8.13152e-19
0.00262501
1.89735e-18
0.00262501
7.04731e-19
0.00262501
2.11419e-18
0.00262501
3.57787e-18
0.00262501
1.57209e-18
0.00262501
1.30104e-18
0.00262501
-1.0842e-18
0.00262501
-7.04731e-19
0.00262501
-1.13841e-18
0.00262501
-7.58942e-19
0.00262501
-2.33103e-18
0.00262501
-9.75782e-19
0.00262501
-9.75782e-19
0.00262501
-1.6263e-19
0.00262501
-6.50521e-19
0.00262501
-1.6263e-19
0.00262501
5.42101e-20
0.00262501
7.58942e-19
0.00262501
1.68051e-18
0.00262501
1.13841e-18
0.00262501
-5.42101e-19
0.00262501
-4.87891e-19
0.00262501
3.79471e-19
0.00262501
1.46367e-18
0.00262501
5.42101e-20
0.00262501
1.89735e-18
0.00262501
-2.71051e-19
0.00262501
-1.78893e-18
0.00262501
5.42101e-19
0.00262501
-4.33681e-19
0.00262501
-3.25261e-19
0.00262501
1.0842e-18
0.00262501
4.24845e-16
0.00262501
3.6518e-14
0.00262501
2.93626e-12
0.002625
2.38095e-10
0.0026245
1.60086e-08
0.00258901
1.41485e-06
0.00176117
0.000200594
0.00145168
0.000714133
0.00131463
0.0010606
0.00122453
0.00108162
0.00112822
0.001004
0.00102764
0.00102525
0.000942127
0.00103054
0.000870551
0.000989992
0.000800314
0.000954803
0.000727805
0.000907207
0.000653365
0.000844041
0.000577023
0.000766451
0.000500283
0.000692229
0.000430593
0.000626095
0.00037733
0.000582083
0.000340934
0.000559796
0.000311624
0.000556384
0.000278634
0.000561831
0.000235217
0.000566481
0.000178045
0.000571821
0.000116607
0.000574762
6.2706e-05
0.000582561
2.75775e-05
0.000582956
0.000588317
0.00262501
1.6263e-19
0.00262501
1.6263e-19
0.00262501
-9.21572e-19
0.00262501
-3.25261e-19
0.00262501
1.57209e-18
0.00262501
-1.0842e-19
0.00262501
-3.79471e-19
0.00262501
-5.42101e-19
0.00262501
-3.1984e-18
0.00262501
-2.49366e-18
0.00262501
-1.13841e-18
0.00262501
-5.96311e-19
0.00262501
2.05998e-18
0.00262501
5.42101e-20
0.00262501
-8.13152e-19
0.00262501
5.42101e-20
0.00262501
-1.40946e-18
0.00262501
-3.52366e-18
0.00262501
-1.68051e-18
0.00262501
-2.38524e-18
0.00262501
-1.51788e-18
0.00262501
5.42101e-20
0.00262501
1.24683e-18
0.00262501
1.68051e-18
0.00262501
2.1684e-18
0.00262501
7.58942e-19
0.00262501
1.51788e-18
0.00262501
7.58942e-19
0.00262501
7.58942e-19
0.00262501
7.04731e-19
0.00262501
8.13152e-19
0.00262501
6.50521e-19
0.00262501
-5.42101e-20
0.00262501
1.89735e-18
0.00262501
2.49366e-18
0.00262501
1.73472e-18
0.00262501
2.05998e-18
0.00262501
1.84314e-18
0.00262501
2.49366e-18
0.00262501
2.1684e-19
0.00262501
8.67362e-19
0.00262501
-2.1684e-19
0.00262501
1.40946e-18
0.00262501
1.95156e-18
0.00262501
2.05998e-18
0.00262501
4.33681e-19
0.00262501
-2.71051e-19
0.00262501
-1.02999e-18
0.00262501
1.35525e-18
0.00262501
-5.42101e-20
0.00262501
5.96311e-19
0.00262501
-7.04731e-19
0.00262501
-1.0842e-19
0.00262501
2.1684e-19
0.00262501
1.02999e-18
0.00262501
5.42101e-19
0.00262501
1.46367e-18
0.00262501
-1.68051e-18
0.00262501
1.35525e-18
0.00262501
1.30104e-18
0.00262501
6.50521e-19
0.00262501
1.13841e-18
0.00262501
1.13841e-18
0.00262501
1.30104e-18
0.00262501
5.42101e-19
0.00262501
5.04154e-18
0.00262501
2.08926e-16
0.00262501
2.15472e-14
0.00262501
2.02594e-12
0.002625
1.77688e-10
0.00262465
1.32477e-08
0.00259841
1.17328e-06
0.00192225
0.000140063
0.00149848
0.000779017
0.00134018
0.00112519
0.00126319
0.00115801
0.0011559
0.00111919
0.0010542
0.00114384
0.000972032
0.00113618
0.000898866
0.00108627
0.000825413
0.00105039
0.000752418
0.00100054
0.000680186
0.000934529
0.000605274
0.000855322
0.000526048
0.000780065
0.000450481
0.000710623
0.000391059
0.000658969
0.000350321
0.00062726
0.000319249
0.00061823
0.000285656
0.000621787
0.000240504
0.000626575
0.000182847
0.000632958
0.000121889
0.000637631
6.90694e-05
0.00064633
2.75059e-05
0.000651248
0.000648445
0.00262501
-5.42101e-20
0.00262501
-2.71051e-19
0.00262501
-4.33681e-19
0.00262501
0
0.00262501
-2.1684e-19
0.00262501
-1.6263e-19
0.00262501
-1.95156e-18
0.00262501
-6.50521e-19
0.00262501
-1.6263e-19
0.00262501
-7.04731e-19
0.00262501
-9.21572e-19
0.00262501
4.87891e-19
0.00262501
-5.42101e-19
0.00262501
5.42101e-20
0.00262501
-2.33103e-18
0.00262501
-2.76472e-18
0.00262501
-9.21572e-19
0.00262501
-1.35525e-18
0.00262501
-1.57209e-18
0.00262501
-1.30104e-18
0.00262501
-2.6563e-18
0.00262501
-2.71051e-19
0.00262501
2.71051e-19
0.00262501
3.25261e-19
0.00262501
8.13152e-19
0.00262501
5.42101e-20
0.00262501
1.02999e-18
0.00262501
5.42101e-20
0.00262501
1.0842e-19
0.00262501
-5.42101e-19
0.00262501
1.0842e-19
0.00262501
-2.71051e-19
0.00262501
9.21572e-19
0.00262501
8.67362e-19
0.00262501
1.13841e-18
0.00262501
6.50521e-19
0.00262501
2.1684e-19
0.00262501
-9.21572e-19
0.00262501
9.21572e-19
0.00262501
1.19262e-18
0.00262501
2.27682e-18
0.00262501
1.0842e-18
0.00262501
8.13152e-19
0.00262501
7.04731e-19
0.00262501
-1.0842e-19
0.00262501
5.42101e-20
0.00262501
-1.51788e-18
0.00262501
-6.50521e-19
0.00262501
-1.02999e-18
0.00262501
1.0842e-19
0.00262501
-1.02999e-18
0.00262501
-2.1684e-19
0.00262501
1.0842e-19
0.00262501
0
0.00262501
2.1684e-19
0.00262501
2.92735e-18
0.00262501
2.54788e-18
0.00262501
-2.00577e-18
0.00262501
8.67362e-19
0.00262501
1.30104e-18
0.00262501
1.30104e-18
0.00262501
2.54788e-18
0.00262501
5.42101e-19
0.00262501
3.79471e-19
0.00262501
7.04731e-19
0.00262501
-2.27682e-18
0.00262501
3.9736e-17
0.00262501
4.98982e-15
0.00262501
6.82299e-13
0.00262501
9.04319e-11
0.0026248
1.02383e-08
0.00260714
1.07333e-06
0.00210919
8.3032e-05
0.0015554
0.000820345
0.00136351
0.00117031
0.00130314
0.00122614
0.00118213
0.001258
0.00108058
0.00126651
0.00100211
0.00123659
0.000926661
0.00118025
0.00085108
0.00114551
0.00077951
0.00109397
0.00071015
0.00102569
0.000635508
0.000947112
0.00055257
0.000873035
0.000470844
0.000800916
0.000405181
0.000741353
0.00035927
0.000699296
0.000324884
0.000683123
0.000289801
0.000683557
0.000243945
0.000688525
0.000186015
0.000695712
0.000125375
0.000701496
7.31575e-05
0.000706846
3.41926e-05
0.000715042
0.000717752
0.00262501
1.57209e-18
0.00262501
4.87891e-19
0.00262501
-2.71051e-19
0.00262501
3.25261e-19
0.00262501
-5.96311e-19
0.00262501
-2.1684e-19
0.00262501
7.04731e-19
0.00262501
-4.87891e-19
0.00262501
-3.79471e-19
0.00262501
1.35525e-18
0.00262501
5.96311e-19
0.00262501
1.0842e-19
0.00262501
-2.27682e-18
0.00262501
-1.35525e-18
0.00262501
-1.19262e-18
0.00262501
-1.46367e-18
0.00262501
-1.84314e-18
0.00262501
-1.6263e-18
0.00262501
-1.0842e-18
0.00262501
1.13841e-18
0.00262501
1.68051e-18
0.00262501
-4.33681e-19
0.00262501
8.67362e-19
0.00262501
-4.87891e-19
0.00262501
-1.51788e-18
0.00262501
-5.42101e-20
0.00262501
-4.87891e-19
0.00262501
2.00577e-18
0.00262501
1.78893e-18
0.00262501
4.87891e-19
0.00262501
6.50521e-19
0.00262501
3.46945e-18
0.00262501
5.42101e-19
0.00262501
3.25261e-19
0.00262501
2.71051e-19
0.00262501
-7.04731e-19
0.00262501
2.87314e-18
0.00262501
2.11419e-18
0.00262501
8.67362e-19
0.00262501
2.1684e-18
0.00262501
3.08998e-18
0.00262501
5.04154e-18
0.00262501
1.95156e-18
0.00262501
-1.6263e-18
0.00262501
0
0.00262501
-2.11419e-18
0.00262501
-1.40946e-18
0.00262501
-6.50521e-19
0.00262501
-1.46367e-18
0.00262501
-1.13841e-18
0.00262501
-2.1684e-19
0.00262501
8.67362e-19
0.00262501
3.41524e-18
0.00262501
2.11419e-18
0.00262501
2.11419e-18
0.00262501
6.50521e-19
0.00262501
-7.04731e-19
0.00262501
4.39102e-18
0.00262501
1.0842e-18
0.00262501
9.75782e-19
0.00262501
9.21572e-19
0.00262501
-1.0842e-19
0.00262501
2.71051e-19
0.00262501
1.0842e-19
0.00262501
4.87891e-19
0.00262501
3.14419e-18
0.00262501
2.69424e-17
0.00262501
1.14166e-15
0.00262501
3.33734e-14
0.00262501
8.65922e-13
0.00262494
3.87526e-10
0.00261741
1.43455e-07
0.00236149
3.13095e-05
0.00158619
0.000852417
0.00134991
0.00122152
0.00131597
0.00128539
0.00122099
0.00138222
0.00112604
0.0013874
0.00104348
0.00133673
0.000958809
0.00127712
0.000879932
0.00124281
0.000810237
0.00118925
0.000742734
0.00111975
0.000667418
0.00104307
0.000581011
0.000970521
0.000494233
0.000895497
0.00042324
0.000828107
0.000372194
0.000775778
0.000333823
0.000751679
0.000297572
0.000747314
0.000252233
0.000751472
0.000194729
0.000759064
0.000132739
0.000765648
7.44044e-05
0.000772393
2.59978e-05
0.000781585
0.000788976
0.00262501
2.1684e-19
0.00262501
2.1684e-19
0.00262501
7.04731e-19
0.00262501
-1.02999e-18
0.00262501
9.75782e-19
0.00262501
-1.19262e-18
0.00262501
-6.50521e-19
0.00262501
1.0842e-18
0.00262501
1.6263e-18
0.00262501
-1.73472e-18
0.00262501
-1.0842e-18
0.00262501
-1.46367e-18
0.00262501
5.42101e-19
0.00262501
-3.25261e-19
0.00262501
-7.04731e-19
0.00262501