/*--------------------------------*- C++ -*----------------------------------*\
| =========                 |                                                 |
| \\      /  F ield         | OpenFOAM: The Open Source CFD Toolbox           |
|  \\    /   O peration     | Version:  v1812                                 |
|   \\  /    A nd           | Web:      www.OpenFOAM.com                      |
|    \\/     M anipulation  |                                                 |
\*---------------------------------------------------------------------------*/
FoamFile
{
    version     2.0;
    format      ascii;
    class       volVectorField;
    location    "0.2";
    object      U;
}
// * * * * * * * * * * * * * * * * * * * * * * * * * * * * * * * * * * * * * //

dimensions      [0 1 -1 0 0 0 0];


internalField   nonuniform List<vector> 
64512
(
(3 1.36995e-16 0)
(3 9.53551e-17 0)
(3 -3.82998e-16 0)
(3 -1.5717e-17 0)
(3 -3.47041e-17 0)
(3 8.06053e-17 0)
(3 1.69077e-16 0)
(3 2.38097e-16 0)
(3 5.73845e-16 0)
(3 1.18538e-16 0)
(3 3.89367e-16 0)
(3 6.71528e-16 0)
(3 6.49685e-16 0)
(3 4.33403e-16 0)
(3 9.54095e-17 0)
(3 1.54863e-16 0)
(3 4.52702e-17 0)
(3 1.27414e-16 0)
(3 5.45315e-17 0)
(3 -7.31456e-16 0)
(3 -9.90649e-16 0)
(3 -6.8858e-16 0)
(3 -4.21555e-16 0)
(3 -5.86375e-16 0)
(3 7.61805e-16 0)
(3 1.32258e-15 0)
(3 1.61083e-15 0)
(3 1.55344e-15 0)
(3 1.30593e-15 0)
(3 7.02337e-16 0)
(3 2.1788e-16 0)
(3 2.14101e-16 0)
(3 8.82814e-16 0)
(3 1.19031e-15 0)
(3 1.10394e-15 0)
(3 1.19554e-15 0)
(3 8.19371e-16 0)
(3 3.20785e-16 0)
(3 6.71611e-16 0)
(3 6.44109e-16 0)
(3 5.21624e-16 0)
(3 5.39718e-16 0)
(3 6.12774e-18 0)
(3 1.37198e-16 0)
(3 4.41387e-16 0)
(3 6.41355e-16 0)
(3 1.36098e-16 0)
(3 -2.71621e-17 0)
(3 2.63061e-17 0)
(3 -2.91256e-16 0)
(3 -4.54031e-16 0)
(3 -1.61209e-16 0)
(3 -3.35628e-16 0)
(3 -5.96205e-16 0)
(3 -6.00854e-16 0)
(3 4.09147e-16 0)
(3 9.177e-16 0)
(3 1.33454e-15 0)
(3 1.21868e-15 0)
(3 9.98116e-16 0)
(3 7.76945e-16 0)
(3 1.05323e-15 0)
(3 1.07547e-15 0)
(3 9.71923e-16 0)
(3 4.93124e-16 0)
(3 4.43519e-16 0)
(3 3.58155e-14 0)
(3 2.60679e-12 0)
(3 1.96721e-10 0)
(2.99999 1.07465e-08 0)
(2.99961 1.1559e-06 0)
(2.97331 2.0172e-05 0)
(1.31116 0.00696276 0)
(0.420616 0.00929796 0)
(0.340367 0.0081537 0)
(0.315276 0.018375 0)
(0.295413 0.00996686 0)
(0.271561 0.013648 0)
(0.242508 0.0147979 0)
(0.216524 0.0140203 0)
(0.194825 0.0146014 0)
(0.174487 0.0142226 0)
(0.15654 0.0124078 0)
(0.141252 0.0100789 0)
(0.127137 0.00841294 0)
(0.113802 0.00769646 0)
(0.101965 0.00751079 0)
(0.0931335 0.00761993 0)
(0.0856879 0.00767021 0)
(0.0785457 0.00775698 0)
(0.0683813 0.00780916 0)
(0.0547452 0.00795019 0)
(0.0391989 0.00784315 0)
(0.024764 0.00782551 0)
(0.0103684 0.00778681 0)
(0.00463501 0.00790269 0)
(3 4.69458e-16 0)
(3 -6.3485e-18 0)
(3 -1.23565e-16 0)
(3 -1.03705e-16 0)
(3 -3.95758e-16 0)
(3 1.62699e-16 0)
(3 2.76877e-16 0)
(3 1.51715e-16 0)
(3 -2.88187e-16 0)
(3 -4.54873e-16 0)
(3 1.03096e-15 0)
(3 6.94171e-16 0)
(3 2.25975e-16 0)
(3 -5.96394e-16 0)
(3 7.6241e-17 0)
(3 -4.18509e-16 0)
(3 -5.0355e-16 0)
(3 -1.67642e-16 0)
(3 6.98978e-17 0)
(3 3.09749e-16 0)
(3 7.74674e-16 0)
(3 1.31718e-15 0)
(3 1.5539e-15 0)
(3 1.1008e-15 0)
(3 1.41189e-15 0)
(3 1.44027e-15 0)
(3 1.53462e-15 0)
(3 1.43207e-15 0)
(3 1.61882e-15 0)
(3 1.6304e-15 0)
(3 1.31856e-15 0)
(3 8.80597e-16 0)
(3 5.86202e-16 0)
(3 1.24512e-16 0)
(3 -2.6524e-17 0)
(3 -1.94804e-18 0)
(3 -6.53845e-16 0)
(3 -1.73201e-15 0)
(3 -9.05356e-16 0)
(3 2.05613e-16 0)
(3 8.73818e-16 0)
(3 1.63138e-15 0)
(3 1.42111e-15 0)
(3 1.16047e-15 0)
(3 3.7952e-16 0)
(3 -7.49554e-17 0)
(3 -1.69671e-15 0)
(3 -1.52175e-15 0)
(3 -1.15563e-15 0)
(3 -8.22745e-17 0)
(3 6.06157e-16 0)
(3 1.64829e-15 0)
(3 1.66236e-15 0)
(3 8.76248e-16 0)
(3 5.94743e-16 0)
(3 1.01403e-15 0)
(3 1.53432e-15 0)
(3 1.38187e-15 0)
(3 1.21053e-15 0)
(3 7.60862e-16 0)
(3 8.4126e-16 0)
(3 1.03874e-15 0)
(3 1.11496e-15 0)
(3 9.46248e-16 0)
(3 6.4455e-16 0)
(3 4.46712e-15 0)
(3 3.65814e-13 0)
(3 2.65901e-11 0)
(3 1.77521e-09 0)
(2.99999 1.1828e-07 0)
(2.99962 8.18956e-06 0)
(2.97391 0.000384806 0)
(1.34083 0.038573 0)
(0.44295 0.0399711 0)
(0.364356 0.0362739 0)
(0.339704 0.050885 0)
(0.31345 0.0414653 0)
(0.281984 0.0434075 0)
(0.251011 0.0452619 0)
(0.22386 0.0430146 0)
(0.201524 0.0426316 0)
(0.181866 0.0400163 0)
(0.16563 0.0336131 0)
(0.151371 0.0272313 0)
(0.136985 0.0237942 0)
(0.122956 0.0228351 0)
(0.110432 0.0229797 0)
(0.10093 0.0235329 0)
(0.0928954 0.0238815 0)
(0.0851086 0.0244025 0)
(0.0742654 0.0247674 0)
(0.0598313 0.0252122 0)
(0.0431084 0.0255009 0)
(0.0271399 0.0254849 0)
(0.0120766 0.0249816 0)
(0.00522038 0.0254831 0)
(3 -2.85033e-16 0)
(3 -2.77629e-16 0)
(3 -2.01276e-16 0)
(3 -3.5873e-16 0)
(3 -6.07712e-16 0)
(3 -1.41059e-15 0)
(3 -1.70956e-15 0)
(3 -1.14115e-15 0)
(3 -6.52279e-16 0)
(3 -3.76862e-16 0)
(3 -3.63912e-16 0)
(3 -1.00248e-15 0)
(3 -1.08161e-15 0)
(3 -3.98618e-16 0)
(3 3.34968e-16 0)
(3 6.55913e-16 0)
(3 2.52977e-16 0)
(3 3.42775e-16 0)
(3 8.58695e-17 0)
(3 8.65302e-16 0)
(3 9.57322e-16 0)
(3 1.41555e-15 0)
(3 1.15935e-15 0)
(3 1.44848e-15 0)
(3 1.07261e-15 0)
(3 2.70096e-16 0)
(3 -2.87219e-16 0)
(3 -7.7287e-16 0)
(3 -4.1306e-16 0)
(3 6.4818e-16 0)
(3 1.46424e-15 0)
(3 1.21512e-15 0)
(3 6.90204e-16 0)
(3 5.96027e-16 0)
(3 1.50192e-15 0)
(3 1.5425e-15 0)
(3 7.87589e-16 0)
(3 8.13497e-16 0)
(3 3.88195e-16 0)
(3 2.14329e-16 0)
(3 -2.70841e-16 0)
(3 -5.84513e-16 0)
(3 -5.05602e-16 0)
(3 -1.29728e-15 0)
(3 -7.3801e-16 0)
(3 -3.96828e-16 0)
(3 -1.84863e-18 0)
(3 -3.99589e-16 0)
(3 -6.46006e-16 0)
(3 -9.74312e-17 0)
(3 2.85712e-16 0)
(3 3.89808e-16 0)
(3 7.82009e-16 0)
(3 8.96187e-16 0)
(3 1.16392e-15 0)
(3 1.06072e-15 0)
(3 1.32137e-15 0)
(3 9.53728e-16 0)
(3 6.58579e-16 0)
(3 9.13957e-16 0)
(3 1.54163e-15 0)
(3 4.33681e-16 0)
(3 1.394e-16 0)
(3 2.58561e-16 0)
(3 6.68149e-16 0)
(3 9.79994e-15 0)
(3 5.96194e-13 0)
(3 4.22698e-11 0)
(3 2.78408e-09 0)
(2.99999 1.85232e-07 0)
(2.99964 1.20375e-05 0)
(2.97495 0.000611549 0)
(1.36897 0.0531659 0)
(0.443492 0.0598065 0)
(0.36044 0.0602767 0)
(0.338942 0.0849835 0)
(0.314515 0.0740853 0)
(0.283806 0.0738211 0)
(0.254278 0.0757857 0)
(0.227923 0.0726126 0)
(0.20538 0.0715038 0)
(0.185305 0.0661799 0)
(0.168365 0.0564404 0)
(0.152132 0.0471575 0)
(0.13537 0.0418609 0)
(0.119617 0.0399366 0)
(0.106162 0.0398221 0)
(0.0963515 0.0403504 0)
(0.0882699 0.0406633 0)
(0.0807256 0.0413352 0)
(0.0702356 0.0418047 0)
(0.0561604 0.0425311 0)
(0.0398794 0.0428872 0)
(0.0245384 0.0427382 0)
(0.0111912 0.0419238 0)
(0.00495956 0.0421859 0)
(3 -5.18488e-16 0)
(3 6.69417e-16 0)
(3 4.37061e-16 0)
(3 7.58503e-16 0)
(3 7.62007e-16 0)
(3 -8.38658e-16 0)
(3 -1.05737e-15 0)
(3 -6.84848e-16 0)
(3 -1.61782e-16 0)
(3 2.95022e-16 0)
(3 -8.18164e-16 0)
(3 -8.7088e-16 0)
(3 -8.29385e-16 0)
(3 6.94561e-16 0)
(3 5.2447e-16 0)
(3 1.04841e-15 0)
(3 1.59077e-15 0)
(3 1.30865e-15 0)
(3 6.54106e-16 0)
(3 2.05308e-16 0)
(3 4.25102e-16 0)
(3 -1.2115e-16 0)
(3 -1.24834e-16 0)
(3 1.28402e-16 0)
(3 6.55781e-16 0)
(3 6.0841e-16 0)
(3 -1.39897e-16 0)
(3 -3.34534e-16 0)
(3 -5.31036e-16 0)
(3 -4.3899e-16 0)
(3 -1.96547e-16 0)
(3 7.55402e-16 0)
(3 9.81365e-16 0)
(3 7.42603e-16 0)
(3 5.43134e-16 0)
(3 9.33561e-16 0)
(3 1.02708e-15 0)
(3 9.81179e-16 0)
(3 4.69155e-16 0)
(3 -8.07532e-16 0)
(3 -8.357e-16 0)
(3 -7.95775e-16 0)
(3 -3.03632e-16 0)
(3 7.14775e-16 0)
(3 1.25194e-15 0)
(3 2.12517e-15 0)
(3 2.11815e-15 0)
(3 4.44643e-16 0)
(3 3.42451e-16 0)
(3 -2.3841e-16 0)
(3 -8.38472e-16 0)
(3 -7.99961e-16 0)
(3 -8.23156e-16 0)
(3 5.7937e-17 0)
(3 -2.70934e-17 0)
(3 3.3643e-16 0)
(3 3.60098e-16 0)
(3 3.28665e-16 0)
(3 6.07251e-16 0)
(3 1.36761e-15 0)
(3 1.61908e-15 0)
(3 1.45e-15 0)
(3 1.21931e-15 0)
(3 7.87173e-16 0)
(3 1.07356e-15 0)
(3 1.1809e-14 0)
(3 7.65944e-13 0)
(3 5.51938e-11 0)
(3 3.68393e-09 0)
(3 2.50913e-07 0)
(2.99966 1.64722e-05 0)
(2.97651 0.000876933 0)
(1.41234 0.0779823 0)
(0.445621 0.0854558 0)
(0.354624 0.0850048 0)
(0.33372 0.114191 0)
(0.310344 0.104821 0)
(0.280927 0.102896 0)
(0.252714 0.105288 0)
(0.227735 0.102101 0)
(0.206408 0.100181 0)
(0.187212 0.0927351 0)
(0.170364 0.0802901 0)
(0.153405 0.0680388 0)
(0.135906 0.0602521 0)
(0.120013 0.0565531 0)
(0.10687 0.0558022 0)
(0.0975413 0.0562713 0)
(0.0897156 0.0566413 0)
(0.0823108 0.0575839 0)
(0.0717199 0.0583015 0)
(0.0573874 0.0592675 0)
(0.041069 0.059767 0)
(0.025304 0.0598329 0)
(0.0122762 0.0586471 0)
(0.00540443 0.0587028 0)
(3 6.89621e-17 0)
(3 -1.90955e-16 0)
(3 5.90832e-16 0)
(3 1.03407e-16 0)
(3 -5.73074e-16 0)
(3 1.21617e-15 0)
(3 1.51936e-15 0)
(3 1.12703e-15 0)
(3 5.87674e-16 0)
(3 6.74681e-16 0)
(3 5.26951e-16 0)
(3 1.54412e-17 0)
(3 -3.74528e-16 0)
(3 -9.26195e-16 0)
(3 -1.34802e-15 0)
(3 -2.07702e-15 0)
(3 -1.27443e-15 0)
(3 -1.68736e-16 0)
(3 6.67565e-16 0)
(3 1.16563e-15 0)
(3 8.9982e-16 0)
(3 -7.18874e-16 0)
(3 -5.48216e-16 0)
(3 -3.98287e-16 0)
(3 -1.54522e-16 0)
(3 -5.22708e-17 0)
(3 -4.05529e-16 0)
(3 7.88448e-17 0)
(3 1.52745e-16 0)
(3 7.40866e-16 0)
(3 6.12605e-16 0)
(3 -7.1013e-16 0)
(3 -4.76414e-16 0)
(3 -3.02348e-16 0)
(3 -2.30561e-16 0)
(3 -3.1711e-16 0)
(3 3.0642e-16 0)
(3 2.03791e-16 0)
(3 -3.85e-16 0)
(3 -6.9313e-16 0)
(3 -1.29634e-16 0)
(3 5.88345e-16 0)
(3 1.62463e-15 0)
(3 1.86523e-15 0)
(3 1.41885e-15 0)
(3 2.91341e-16 0)
(3 -1.07361e-15 0)
(3 -1.01509e-15 0)
(3 -1.23555e-15 0)
(3 -9.27065e-16 0)
(3 -9.29102e-16 0)
(3 -9.61482e-16 0)
(3 -1.00873e-15 0)
(3 -9.50784e-16 0)
(3 -6.32719e-16 0)
(3 -2.28168e-16 0)
(3 -2.00184e-16 0)
(3 4.32799e-16 0)
(3 1.54739e-15 0)
(3 1.34927e-15 0)
(3 1.0088e-15 0)
(3 4.69609e-16 0)
(3 5.95164e-16 0)
(3 3.21619e-17 0)
(3 1.16595e-16 0)
(3 1.19922e-14 0)
(3 9.16807e-13 0)
(3 6.72251e-11 0)
(3 4.53857e-09 0)
(3 3.17739e-07 0)
(2.9997 2.06173e-05 0)
(2.97863 0.00116854 0)
(1.48158 0.102052 0)
(0.458155 0.110025 0)
(0.358206 0.110512 0)
(0.333695 0.143414 0)
(0.309182 0.134125 0)
(0.280835 0.130977 0)
(0.253831 0.133743 0)
(0.230612 0.130435 0)
(0.210741 0.127541 0)
(0.192552 0.118549 0)
(0.175347 0.104486 0)
(0.157169 0.0899399 0)
(0.138146 0.0797592 0)
(0.121217 0.0739049 0)
(0.107424 0.0721891 0)
(0.0979695 0.0725151 0)
(0.089967 0.0729819 0)
(0.0824618 0.0741339 0)
(0.0718255 0.0750952 0)
(0.0572666 0.0764449 0)
(0.041346 0.0772091 0)
(0.025148 0.0776705 0)
(0.0123974 0.0759982 0)
(0.0056593 0.0754635 0)
(3 6.18151e-17 0)
(3 -1.32838e-16 0)
(3 -7.21596e-16 0)
(3 -7.44125e-16 0)
(3 7.05803e-17 0)
(3 1.22068e-15 0)
(3 1.16501e-15 0)
(3 2.64452e-16 0)
(3 -9.48946e-17 0)
(3 -5.25824e-16 0)
(3 5.77409e-16 0)
(3 2.886e-16 0)
(3 2.98782e-16 0)
(3 -4.5254e-16 0)
(3 -1.03957e-15 0)
(3 -1.01216e-15 0)
(3 -1.90512e-16 0)
(3 5.09755e-16 0)
(3 1.60272e-15 0)
(3 1.42821e-15 0)
(3 3.8929e-16 0)
(3 -1.14771e-16 0)
(3 8.99041e-17 0)
(3 2.56074e-16 0)
(3 6.06945e-16 0)
(3 5.11035e-16 0)
(3 6.73985e-17 0)
(3 3.17412e-16 0)
(3 4.67056e-16 0)
(3 -2.55366e-16 0)
(3 -9.13052e-16 0)
(3 -2.10395e-15 0)
(3 -2.14541e-15 0)
(3 -1.23102e-15 0)
(3 -6.34047e-16 0)
(3 -8.41725e-16 0)
(3 -5.02644e-16 0)
(3 2.66459e-16 0)
(3 4.16858e-16 0)
(3 5.9995e-16 0)
(3 -2.66332e-18 0)
(3 -3.22039e-16 0)
(3 -7.05988e-17 0)
(3 7.36461e-17 0)
(3 5.10403e-16 0)
(3 6.04226e-16 0)
(3 5.05996e-16 0)
(3 1.24568e-15 0)
(3 1.02663e-15 0)
(3 1.13658e-15 0)
(3 1.18945e-15 0)
(3 3.66937e-16 0)
(3 7.72367e-16 0)
(3 8.5297e-17 0)
(3 4.91827e-16 0)
(3 4.49461e-16 0)
(3 -4.30454e-17 0)
(3 5.57084e-16 0)
(3 8.67645e-16 0)
(3 1.03993e-15 0)
(3 1.56101e-15 0)
(3 1.3546e-15 0)
(3 1.36861e-15 0)
(3 1.13717e-15 0)
(3 1.1305e-15 0)
(3 1.51147e-14 0)
(3 9.98643e-13 0)
(3 7.43276e-11 0)
(3 5.09153e-09 0)
(3 3.66576e-07 0)
(2.99974 2.35112e-05 0)
(2.98123 0.0014427 0)
(1.57353 0.122924 0)
(0.476598 0.134306 0)
(0.367392 0.138816 0)
(0.336213 0.17314 0)
(0.310575 0.162216 0)
(0.282556 0.15827 0)
(0.25633 0.161596 0)
(0.234193 0.158195 0)
(0.214976 0.154447 0)
(0.196833 0.144788 0)
(0.178635 0.129994 0)
(0.159337 0.113494 0)
(0.139177 0.100689 0)
(0.12165 0.0921022 0)
(0.107443 0.0889235 0)
(0.0979337 0.08886 0)
(0.0898195 0.0893863 0)
(0.0822553 0.0907415 0)
(0.0716866 0.0919122 0)
(0.0569254 0.0936374 0)
(0.0417196 0.0946976 0)
(0.0248792 0.0953684 0)
(0.0120847 0.0934591 0)
(0.00553902 0.091437 0)
(3 -1.79369e-16 0)
(3 -5.81577e-17 0)
(3 -3.71823e-16 0)
(3 5.1457e-16 0)
(3 3.79139e-16 0)
(3 3.27807e-16 0)
(3 -1.72194e-16 0)
(3 -4.60802e-16 0)
(3 -6.52704e-16 0)
(3 -7.38358e-16 0)
(3 -1.84007e-16 0)
(3 6.90367e-16 0)
(3 9.05727e-16 0)
(3 7.96326e-16 0)
(3 7.98658e-16 0)
(3 2.5813e-16 0)
(3 2.37553e-16 0)
(3 -6.61257e-17 0)
(3 -3.60122e-17 0)
(3 -1.13172e-16 0)
(3 3.51668e-16 0)
(3 5.86572e-16 0)
(3 3.17064e-16 0)
(3 2.47239e-16 0)
(3 1.14536e-15 0)
(3 4.4919e-16 0)
(3 3.59543e-16 0)
(3 -8.38374e-17 0)
(3 -1.77821e-16 0)
(3 -9.06978e-16 0)
(3 -2.37133e-17 0)
(3 2.84912e-17 0)
(3 -2.24544e-16 0)
(3 -4.16069e-16 0)
(3 6.09981e-17 0)
(3 -1.94177e-16 0)
(3 1.56987e-16 0)
(3 2.50542e-16 0)
(3 4.58191e-16 0)
(3 1.28742e-15 0)
(3 1.16807e-15 0)
(3 1.09863e-15 0)
(3 9.67961e-16 0)
(3 2.23441e-15 0)
(3 1.24351e-15 0)
(3 1.21788e-15 0)
(3 1.49195e-15 0)
(3 1.91738e-15 0)
(3 2.32856e-15 0)
(3 1.70044e-15 0)
(3 1.10534e-16 0)
(3 3.21677e-16 0)
(3 4.5519e-16 0)
(3 1.32068e-15 0)
(3 7.41345e-16 0)
(3 2.00695e-17 0)
(3 -3.98437e-16 0)
(3 -1.01122e-15 0)
(3 -1.75738e-15 0)
(3 -2.03282e-15 0)
(3 -1.96976e-15 0)
(3 -9.78263e-16 0)
(3 -1.17848e-15 0)
(3 -9.28829e-16 0)
(3 -3.87604e-16 0)
(3 1.14508e-14 0)
(3 9.86552e-13 0)
(3 7.51503e-11 0)
(3 5.26006e-09 0)
(3 3.91192e-07 0)
(2.99979 2.49946e-05 0)
(2.98422 0.00168415 0)
(1.69109 0.14095 0)
(0.502202 0.154705 0)
(0.379651 0.17066 0)
(0.339288 0.203283 0)
(0.31328 0.189408 0)
(0.285148 0.185575 0)
(0.259728 0.189611 0)
(0.238482 0.18592 0)
(0.219717 0.181373 0)
(0.201885 0.171235 0)
(0.183495 0.155885 0)
(0.164129 0.137568 0)
(0.143379 0.122206 0)
(0.125306 0.110808 0)
(0.110328 0.105934 0)
(0.1004 0.105246 0)
(0.09199 0.105907 0)
(0.0841311 0.107548 0)
(0.0734051 0.10905 0)
(0.0584378 0.111069 0)
(0.0430725 0.112489 0)
(0.0256766 0.112544 0)
(0.0124936 0.111191 0)
(0.00462965 0.108097 0)
(3 1.40926e-16 0)
(3 -6.61052e-17 0)
(3 9.61582e-18 0)
(3 3.17719e-16 0)
(3 -4.02775e-16 0)
(3 -4.74864e-16 0)
(3 -3.67704e-16 0)
(3 1.1111e-15 0)
(3 1.16491e-15 0)
(3 1.04312e-15 0)
(3 1.5404e-16 0)
(3 -3.32476e-17 0)
(3 -7.90955e-16 0)
(3 -6.97689e-16 0)
(3 -7.13892e-16 0)
(3 -1.11738e-16 0)
(3 -5.4625e-16 0)
(3 -7.00584e-16 0)
(3 -1.10236e-15 0)
(3 -9.27039e-16 0)
(3 -7.9505e-16 0)
(3 8.09557e-17 0)
(3 -5.51926e-16 0)
(3 -6.92585e-16 0)
(3 -9.17362e-16 0)
(3 -5.25762e-16 0)
(3 1.52449e-17 0)
(3 -1.04244e-15 0)
(3 -1.35186e-15 0)
(3 -1.01626e-15 0)
(3 -6.45495e-16 0)
(3 7.70072e-16 0)
(3 1.406e-15 0)
(3 1.51129e-15 0)
(3 1.16479e-15 0)
(3 1.41206e-15 0)
(3 1.20969e-15 0)
(3 6.85289e-16 0)
(3 6.68675e-16 0)
(3 4.05731e-16 0)
(3 6.65137e-16 0)
(3 9.99345e-16 0)
(3 1.28029e-15 0)
(3 1.83246e-15 0)
(3 2.31705e-15 0)
(3 2.14987e-15 0)
(3 2.23381e-15 0)
(3 2.43828e-15 0)
(3 2.12933e-15 0)
(3 2.45547e-15 0)
(3 1.34561e-15 0)
(3 1.00686e-15 0)
(3 -5.12531e-16 0)
(3 -5.33977e-16 0)
(3 -1.24611e-15 0)
(3 -1.07225e-16 0)
(3 5.84621e-16 0)
(3 8.3498e-16 0)
(3 6.77277e-16 0)
(3 5.28276e-16 0)
(3 -3.76625e-17 0)
(3 3.18116e-16 0)
(3 2.99698e-16 0)
(3 6.64233e-16 0)
(3 1.98866e-16 0)
(3 1.11473e-14 0)
(3 8.88635e-13 0)
(3 6.94184e-11 0)
(3 5.00848e-09 0)
(3 3.85529e-07 0)
(2.99983 2.47693e-05 0)
(2.98747 0.00184237 0)
(1.84031 0.153504 0)
(0.539452 0.172459 0)
(0.39371 0.204978 0)
(0.342823 0.232881 0)
(0.317154 0.215543 0)
(0.288938 0.213315 0)
(0.264521 0.218069 0)
(0.244078 0.213617 0)
(0.225544 0.208072 0)
(0.207951 0.197381 0)
(0.189255 0.181655 0)
(0.169466 0.162171 0)
(0.147696 0.144901 0)
(0.128532 0.130958 0)
(0.112424 0.123977 0)
(0.101738 0.122186 0)
(0.0929045 0.122829 0)
(0.0848434 0.124755 0)
(0.074028 0.126564 0)
(0.0591757 0.128799 0)
(0.0428884 0.130249 0)
(0.0261799 0.129413 0)
(0.0119243 0.128664 0)
(0.00409855 0.126241 0)
(3 3.19836e-16 0)
(3 3.6606e-16 0)
(3 5.44622e-16 0)
(3 2.93009e-16 0)
(3 3.66531e-16 0)
(3 -4.17973e-16 0)
(3 -2.93607e-16 0)
(3 3.68959e-16 0)
(3 1.38086e-15 0)
(3 1.22953e-15 0)
(3 8.03861e-16 0)
(3 5.7258e-17 0)
(3 -6.25868e-16 0)
(3 -8.92289e-16 0)
(3 -3.23226e-16 0)
(3 3.60321e-16 0)
(3 7.83838e-16 0)
(3 5.92487e-16 0)
(3 -1.02735e-16 0)
(3 -8.60348e-16 0)
(3 -1.34376e-15 0)
(3 -1.42623e-15 0)
(3 -1.12103e-15 0)
(3 -5.18343e-16 0)
(3 -7.08413e-16 0)
(3 2.80449e-16 0)
(3 -2.35311e-16 0)
(3 -1.08412e-16 0)
(3 3.0193e-16 0)
(3 7.27798e-16 0)
(3 6.81456e-16 0)
(3 1.728e-15 0)
(3 1.43962e-15 0)
(3 3.01926e-16 0)
(3 -1.55529e-15 0)
(3 -7.04799e-16 0)
(3 -9.34075e-16 0)
(3 -1.44956e-15 0)
(3 -1.39136e-15 0)
(3 -1.06095e-15 0)
(3 -1.26996e-15 0)
(3 -1.02894e-15 0)
(3 -8.99813e-16 0)
(3 -6.62013e-16 0)
(3 3.45127e-16 0)
(3 1.1124e-15 0)
(3 2.33064e-15 0)
(3 1.91849e-15 0)
(3 1.44301e-15 0)
(3 1.76551e-15 0)
(3 2.80312e-15 0)
(3 2.70146e-15 0)
(3 2.27924e-15 0)
(3 2.26325e-16 0)
(3 5.33097e-16 0)
(3 3.54883e-16 0)
(3 -6.92222e-16 0)
(3 -1.02802e-15 0)
(3 -7.70036e-16 0)
(3 -5.07794e-16 0)
(3 3.02371e-16 0)
(3 2.98773e-16 0)
(3 3.69582e-16 0)
(3 5.24614e-16 0)
(3 6.16262e-16 0)
(3 1.02366e-14 0)
(3 7.09088e-13 0)
(3 5.7326e-11 0)
(3 4.31832e-09 0)
(3 3.44924e-07 0)
(2.99988 2.25538e-05 0)
(2.99076 0.00184164 0)
(2.02449 0.156045 0)
(0.595222 0.189987 0)
(0.40771 0.239295 0)
(0.346698 0.26089 0)
(0.321267 0.240975 0)
(0.294349 0.241969 0)
(0.270629 0.247111 0)
(0.251102 0.241196 0)
(0.232468 0.234583 0)
(0.214626 0.223494 0)
(0.195303 0.207705 0)
(0.175113 0.187595 0)
(0.152912 0.16872 0)
(0.133089 0.152396 0)
(0.116072 0.143024 0)
(0.10449 0.139654 0)
(0.0951198 0.140047 0)
(0.0867235 0.142176 0)
(0.0758169 0.144138 0)
(0.0607819 0.146536 0)
(0.0436301 0.147876 0)
(0.0265835 0.147153 0)
(0.012482 0.14613 0)
(0.00522965 0.145097 0)
(3 -2.45037e-16 0)
(3 -4.9757e-16 0)
(3 -4.03147e-16 0)
(3 -4.44401e-16 0)
(3 -6.14555e-17 0)
(3 3.83091e-16 0)
(3 1.22419e-16 0)
(3 -4.61394e-16 0)
(3 -2.59936e-16 0)
(3 -3.89286e-16 0)
(3 -6.52223e-16 0)
(3 -1.0923e-15 0)
(3 -1.02758e-15 0)
(3 -1.17441e-15 0)
(3 -7.86188e-16 0)
(3 -1.17286e-15 0)
(3 -7.91854e-16 0)
(3 -3.46935e-16 0)
(3 -2.02837e-16 0)
(3 -1.24814e-15 0)
(3 -1.19897e-15 0)
(3 -1.67605e-15 0)
(3 -1.98747e-15 0)
(3 -1.91111e-15 0)
(3 -1.29516e-15 0)
(3 -1.11235e-15 0)
(3 -4.94415e-16 0)
(3 8.82329e-16 0)
(3 1.62373e-15 0)
(3 2.82227e-15 0)
(3 2.77497e-15 0)
(3 1.1725e-15 0)
(3 6.53583e-16 0)
(3 5.94731e-16 0)
(3 6.1135e-16 0)
(3 1.13639e-15 0)
(3 9.39215e-16 0)
(3 1.47411e-15 0)
(3 1.34625e-15 0)
(3 1.60841e-15 0)
(3 5.28764e-16 0)
(3 -3.3937e-16 0)
(3 -1.2741e-15 0)
(3 -3.13868e-15 0)
(3 -3.20922e-15 0)
(3 -2.90404e-15 0)
(3 -1.43847e-15 0)
(3 -1.03872e-15 0)
(3 -4.67877e-16 0)
(3 -4.51129e-17 0)
(3 4.56735e-16 0)
(3 9.7729e-16 0)
(3 1.10745e-15 0)
(3 1.22278e-15 0)
(3 8.72285e-16 0)
(3 -3.15681e-16 0)
(3 -1.02855e-15 0)
(3 -7.57452e-16 0)
(3 -1.37734e-15 0)
(3 -1.78937e-15 0)
(3 -1.71416e-15 0)
(3 -2.04903e-15 0)
(3 -1.94931e-15 0)
(3 -2.39156e-15 0)
(3 -2.26521e-15 0)
(3 3.05685e-15 0)
(3 4.70395e-13 0)
(3 4.07205e-11 0)
(3 3.27436e-09 0)
(3 2.74234e-07 0)
(2.99992 1.86597e-05 0)
(2.99379 0.00165728 0)
(2.23614 0.144847 0)
(0.67656 0.21073 0)
(0.418068 0.272218 0)
(0.350086 0.286099 0)
(0.327072 0.266253 0)
(0.30229 0.271894 0)
(0.27795 0.276603 0)
(0.259015 0.268563 0)
(0.239894 0.261175 0)
(0.221255 0.249936 0)
(0.201585 0.233993 0)
(0.181763 0.213288 0)
(0.159757 0.193089 0)
(0.139091 0.174972 0)
(0.120748 0.163394 0)
(0.107808 0.158097 0)
(0.0975105 0.157807 0)
(0.0887352 0.159887 0)
(0.0776184 0.161899 0)
(0.0620418 0.1645 0)
(0.0450308 0.165937 0)
(0.0270583 0.166768 0)
(0.0141534 0.164637 0)
(0.0065052 0.163271 0)
(3 -1.63232e-16 0)
(3 -5.04185e-16 0)
(3 -6.31697e-16 0)
(3 -7.69214e-16 0)
(3 -9.33088e-17 0)
(3 7.59033e-16 0)
(3 9.59542e-16 0)
(3 -4.10653e-16 0)
(3 -2.48436e-15 0)
(3 -2.68956e-15 0)
(3 -2.18124e-15 0)
(3 -1.17314e-15 0)
(3 3.54701e-16 0)
(3 3.18789e-16 0)
(3 -9.57204e-17 0)
(3 -4.84327e-17 0)
(3 -1.02605e-15 0)
(3 -1.76188e-15 0)
(3 -1.71255e-15 0)
(3 -1.7181e-15 0)
(3 -9.73673e-16 0)
(3 -4.2374e-17 0)
(3 2.5842e-16 0)
(3 2.39462e-16 0)
(3 6.90315e-16 0)
(3 8.5151e-17 0)
(3 6.11134e-16 0)
(3 1.07413e-15 0)
(3 8.75294e-16 0)
(3 1.02209e-15 0)
(3 6.71721e-16 0)
(3 2.70074e-16 0)
(3 -2.46655e-16 0)
(3 8.44799e-16 0)
(3 1.73789e-15 0)
(3 1.5528e-15 0)
(3 1.88254e-15 0)
(3 2.74694e-15 0)
(3 2.1769e-15 0)
(3 9.30043e-16 0)
(3 -5.16e-18 0)
(3 -5.59378e-16 0)
(3 -3.86312e-16 0)
(3 3.03488e-16 0)
(3 -1.19951e-16 0)
(3 -1.13725e-16 0)
(3 -6.7005e-16 0)
(3 -4.2507e-16 0)
(3 3.47242e-16 0)
(3 6.23686e-16 0)
(3 9.4073e-16 0)
(3 4.91265e-16 0)
(3 1.32313e-16 0)
(3 -7.23025e-17 0)
(3 -3.65971e-17 0)
(3 -3.82755e-16 0)
(3 5.43787e-16 0)
(3 6.9352e-16 0)
(3 5.41131e-16 0)
(3 1.23105e-15 0)
(3 5.89725e-16 0)
(3 5.71355e-16 0)
(3 1.24732e-15 0)
(3 1.42647e-15 0)
(3 6.07729e-16 0)
(3 3.42474e-15 0)
(3 2.56677e-13 0)
(3 2.33596e-11 0)
(3 2.05433e-09 0)
(3 1.85159e-07 0)
(2.99996 1.37577e-05 0)
(2.99631 0.00134025 0)
(2.45714 0.122302 0)
(0.788739 0.236144 0)
(0.421533 0.299803 0)
(0.360833 0.308117 0)
(0.335111 0.294564 0)
(0.309969 0.303826 0)
(0.284793 0.306181 0)
(0.266648 0.295743 0)
(0.247074 0.288028 0)
(0.227958 0.276506 0)
(0.208708 0.260078 0)
(0.189733 0.23891 0)
(0.167698 0.218208 0)
(0.145687 0.199114 0)
(0.125732 0.185489 0)
(0.111427 0.177732 0)
(0.100143 0.176132 0)
(0.0908703 0.177848 0)
(0.0794487 0.17995 0)
(0.0634455 0.182943 0)
(0.0469376 0.184906 0)
(0.0279167 0.186944 0)
(0.0163525 0.184154 0)
(0.0064479 0.181126 0)
(3 -1.58478e-16 0)
(3 -3.13971e-16 0)
(3 -2.58544e-16 0)
(3 3.33002e-16 0)
(3 6.88347e-16 0)
(3 -2.73793e-16 0)
(3 -1.48579e-15 0)
(3 -1.70352e-15 0)
(3 -1.86824e-15 0)
(3 -1.36769e-15 0)
(3 -6.75888e-16 0)
(3 -3.94501e-16 0)
(3 7.42699e-17 0)
(3 -2.37599e-16 0)
(3 -5.44791e-16 0)
(3 -1.25134e-15 0)
(3 -1.45425e-15 0)
(3 -2.2126e-15 0)
(3 -2.43359e-15 0)
(3 -2.01859e-15 0)
(3 -1.98957e-15 0)
(3 -1.08844e-15 0)
(3 4.53863e-16 0)
(3 1.35577e-15 0)
(3 1.77629e-15 0)
(3 1.99818e-15 0)
(3 1.9072e-15 0)
(3 1.34375e-15 0)
(3 7.74665e-16 0)
(3 2.12577e-16 0)
(3 -1.22363e-16 0)
(3 -3.47158e-16 0)
(3 3.37716e-16 0)
(3 8.02193e-16 0)
(3 1.61296e-15 0)
(3 1.63552e-15 0)
(3 1.89759e-15 0)
(3 1.46009e-15 0)
(3 1.67391e-15 0)
(3 8.81247e-16 0)
(3 1.18423e-15 0)
(3 1.39484e-15 0)
(3 1.90862e-15 0)
(3 2.26744e-15 0)
(3 2.13853e-15 0)
(3 1.2837e-15 0)
(3 1.69044e-16 0)
(3 -4.27183e-16 0)
(3 -3.59101e-16 0)
(3 -5.67192e-16 0)
(3 -5.17488e-16 0)
(3 -3.64771e-16 0)
(3 8.02069e-17 0)
(3 3.34968e-16 0)
(3 8.59058e-16 0)
(3 1.57352e-15 0)
(3 2.0713e-15 0)
(3 8.63256e-16 0)
(3 2.19343e-15 0)
(3 2.76078e-15 0)
(3 3.15751e-15 0)
(3 3.13041e-15 0)
(3 2.12386e-15 0)
(3 1.33793e-15 0)
(3 6.09173e-16 0)
(3 1.36896e-15 0)
(3 1.11528e-13 0)
(3 1.02345e-11 0)
(3 9.50815e-10 0)
(3 9.28478e-08 0)
(2.99998 8.0131e-06 0)
(2.99816 0.000887837 0)
(2.67156 0.0901953 0)
(0.9321 0.25966 0)
(0.428395 0.319391 0)
(0.372962 0.326304 0)
(0.344502 0.32997 0)
(0.31663 0.337487 0)
(0.291996 0.33482 0)
(0.274663 0.322276 0)
(0.254233 0.314853 0)
(0.234959 0.302994 0)
(0.216784 0.285985 0)
(0.198379 0.264921 0)
(0.175801 0.24463 0)
(0.152318 0.225005 0)
(0.13074 0.209298 0)
(0.115048 0.198709 0)
(0.102487 0.195268 0)
(0.0924336 0.196299 0)
(0.0806584 0.198617 0)
(0.064531 0.202093 0)
(0.0479346 0.204663 0)
(0.0294537 0.206109 0)
(0.0168397 0.204246 0)
(0.00518831 0.199444 0)
(3 1.70688e-16 0)
(3 1.02046e-17 0)
(3 -3.79618e-16 0)
(3 2.95539e-16 0)
(3 2.50909e-16 0)
(3 3.98014e-16 0)
(3 -3.77193e-16 0)
(3 -4.70656e-16 0)
(3 4.21707e-16 0)
(3 5.39353e-16 0)
(3 2.51884e-16 0)
(3 2.7847e-16 0)
(3 -1.16683e-15 0)
(3 -1.01599e-15 0)
(3 -1.33171e-15 0)
(3 -1.83205e-15 0)
(3 -1.80016e-15 0)
(3 -1.70264e-15 0)
(3 -1.3527e-15 0)
(3 -5.17255e-16 0)
(3 -9.22883e-17 0)
(3 -3.44045e-17 0)
(3 1.0945e-16 0)
(3 -2.51026e-16 0)
(3 -9.65247e-16 0)
(3 -6.32384e-16 0)
(3 -5.61476e-16 0)
(3 1.53436e-16 0)
(3 5.75463e-16 0)
(3 6.55594e-16 0)
(3 6.06429e-16 0)
(3 1.31851e-15 0)
(3 1.37191e-15 0)
(3 1.34763e-15 0)
(3 8.40633e-16 0)
(3 1.47383e-16 0)
(3 9.91501e-16 0)
(3 1.15088e-15 0)
(3 1.02872e-15 0)
(3 1.85417e-15 0)
(3 2.97039e-15 0)
(3 3.33604e-15 0)
(3 2.59374e-15 0)
(3 5.46031e-16 0)
(3 -5.29424e-17 0)
(3 -5.08521e-16 0)
(3 -7.67671e-16 0)
(3 -7.92012e-16 0)
(3 -1.17758e-15 0)
(3 -8.48853e-16 0)
(3 -3.9465e-16 0)
(3 3.77992e-17 0)
(3 9.2344e-16 0)
(3 1.18396e-15 0)
(3 9.49341e-16 0)
(3 1.08227e-15 0)
(3 4.36039e-16 0)
(3 1.01796e-15 0)
(3 1.11051e-15 0)
(3 1.26957e-15 0)
(3 1.69787e-15 0)
(3 1.52403e-15 0)
(3 6.12279e-16 0)
(3 -2.40499e-17 0)
(3 -2.73019e-16 0)
(3 2.51481e-17 0)
(3 6.03206e-14 0)
(3 4.65525e-12 0)
(3 3.70382e-10 0)
(3 3.23241e-08 0)
(2.99999 2.78473e-06 0)
(2.99923 0.000334165 0)
(2.86521 0.0419278 0)
(1.1 0.28462 0)
(0.439754 0.338041 0)
(0.376457 0.34436 0)
(0.355027 0.367094 0)
(0.326883 0.370834 0)
(0.303996 0.361798 0)
(0.284401 0.348508 0)
(0.262424 0.341652 0)
(0.24288 0.329509 0)
(0.22577 0.31215 0)
(0.207342 0.29183 0)
(0.184241 0.272329 0)
(0.159624 0.252284 0)
(0.13672 0.23452 0)
(0.119872 0.220972 0)
(0.105978 0.215364 0)
(0.0951112 0.215324 0)
(0.0831793 0.217715 0)
(0.0673603 0.221536 0)
(0.049827 0.224504 0)
(0.0320552 0.225358 0)
(0.0164172 0.223925 0)
(0.00596213 0.220725 0)
(3 5.30028e-16 0)
(3 7.85825e-16 0)
(3 1.40067e-16 0)
(3 -5.08455e-16 0)
(3 -4.69024e-16 0)
(3 -6.02281e-16 0)
(3 -3.8808e-16 0)
(3 6.42781e-17 0)
(3 3.28404e-16 0)
(3 -6.60829e-17 0)
(3 -5.32037e-16 0)
(3 -4.36227e-16 0)
(3 -8.24831e-16 0)
(3 -1.23446e-15 0)
(3 -1.23818e-15 0)
(3 -1.45914e-15 0)
(3 -1.12444e-15 0)
(3 -5.53154e-16 0)
(3 -8.48015e-16 0)
(3 -3.01216e-16 0)
(3 2.95542e-16 0)
(3 1.5459e-16 0)
(3 -1.92338e-16 0)
(3 -1.6307e-15 0)
(3 -1.50061e-15 0)
(3 -1.4195e-15 0)
(3 -7.87485e-16 0)
(3 -5.5472e-16 0)
(3 -3.28314e-16 0)
(3 -1.26145e-16 0)
(3 3.34882e-16 0)
(3 1.04821e-16 0)
(3 -4.49708e-16 0)
(3 -3.05062e-16 0)
(3 -7.11584e-17 0)
(3 8.49157e-16 0)
(3 1.22166e-15 0)
(3 1.89396e-15 0)
(3 2.32427e-15 0)
(3 2.25694e-15 0)
(3 3.06111e-15 0)
(3 2.9203e-15 0)
(3 1.63854e-15 0)
(3 6.73418e-17 0)
(3 -3.49964e-17 0)
(3 -3.26876e-16 0)
(3 -8.021e-16 0)
(3 -8.15278e-16 0)
(3 -8.54053e-16 0)
(3 -7.45605e-16 0)
(3 -4.2215e-16 0)
(3 2.14458e-17 0)
(3 1.20968e-15 0)
(3 2.59218e-15 0)
(3 2.62142e-15 0)
(3 2.16848e-15 0)
(3 8.69731e-16 0)
(3 1.75042e-15 0)
(3 6.55147e-16 0)
(3 1.20129e-16 0)
(3 -4.33161e-16 0)
(3 -2.83424e-16 0)
(3 1.10722e-16 0)
(3 5.62183e-16 0)
(3 2.20006e-16 0)
(3 9.09546e-17 0)
(3 4.62204e-14 0)
(3 3.28367e-12 0)
(3 2.33207e-10 0)
(3 1.62348e-08 0)
(2.99999 1.11387e-06 0)
(2.99959 9.01078e-05 0)
(2.97091 0.00717809 0)
(1.27577 0.319727 0)
(0.460438 0.35805 0)
(0.380839 0.362404 0)
(0.366193 0.397686 0)
(0.339355 0.40252 0)
(0.318108 0.388996 0)
(0.294579 0.376206 0)
(0.270311 0.369565 0)
(0.251214 0.356446 0)
(0.234709 0.339041 0)
(0.216538 0.319577 0)
(0.193185 0.300976 0)
(0.167785 0.280579 0)
(0.143717 0.261004 0)
(0.12561 0.244719 0)
(0.110067 0.236848 0)
(0.0980278 0.235218 0)
(0.085533 0.237376 0)
(0.0695636 0.241445 0)
(0.0516826 0.244744 0)
(0.0330192 0.246375 0)
(0.0188369 0.244334 0)
(0.00743195 0.24284 0)
(3 -3.29914e-16 0)
(3 -5.67479e-16 0)
(3 -9.16427e-17 0)
(3 -4.81522e-16 0)
(3 -9.80941e-16 0)
(3 -8.57905e-16 0)
(3 -4.02049e-16 0)
(3 8.27472e-16 0)
(3 4.74661e-16 0)
(3 1.38206e-16 0)
(3 4.54518e-16 0)
(3 3.43372e-16 0)
(3 4.22308e-16 0)
(3 4.23675e-16 0)
(3 -7.12777e-16 0)
(3 -1.28011e-15 0)
(3 -1.49729e-15 0)
(3 -1.15212e-15 0)
(3 -9.53563e-16 0)
(3 -1.30753e-15 0)
(3 -1.20672e-15 0)
(3 -8.98463e-16 0)
(3 -3.88429e-16 0)
(3 -3.59656e-16 0)
(3 -2.52317e-16 0)
(3 -3.48595e-16 0)
(3 -5.50198e-16 0)
(3 -1.71781e-15 0)
(3 -1.55609e-15 0)
(3 -1.20329e-15 0)
(3 -1.5485e-16 0)
(3 -9.19427e-16 0)
(3 -9.43136e-16 0)
(3 -1.44736e-15 0)
(3 -1.2513e-15 0)
(3 -3.22237e-16 0)
(3 -9.55735e-16 0)
(3 -7.01642e-16 0)
(3 3.04039e-18 0)
(3 6.26605e-16 0)
(3 9.18559e-16 0)
(3 1.12036e-15 0)
(3 1.72884e-15 0)
(3 1.88056e-15 0)
(3 1.59553e-15 0)
(3 1.01151e-15 0)
(3 8.45572e-16 0)
(3 1.13824e-15 0)
(3 1.79203e-15 0)
(3 2.13178e-15 0)
(3 5.77945e-16 0)
(3 1.64546e-16 0)
(3 -2.00651e-16 0)
(3 4.65123e-16 0)
(3 5.27931e-16 0)
(3 1.27692e-15 0)
(3 2.69315e-15 0)
(3 3.14795e-15 0)
(3 2.84599e-15 0)
(3 2.44317e-15 0)
(3 2.0727e-15 0)
(3 2.40496e-15 0)
(3 2.78249e-15 0)
(3 3.07981e-15 0)
(3 2.19223e-15 0)
(3 1.26786e-15 0)
(3 3.59723e-14 0)
(3 2.65203e-12 0)
(3 1.9536e-10 0)
(3 1.32714e-08 0)
(3 9.313e-07 0)
(2.99972 6.06598e-05 0)
(2.9798 0.00327786 0)
(1.51466 0.342477 0)
(0.499544 0.370763 0)
(0.395892 0.381279 0)
(0.376493 0.427563 0)
(0.349613 0.431817 0)
(0.329375 0.416901 0)
(0.302806 0.406523 0)
(0.277259 0.39912 0)
(0.259776 0.384042 0)
(0.2436 0.366568 0)
(0.225928 0.347939 0)
(0.2026 0.330189 0)
(0.176999 0.309498 0)
(0.152197 0.288543 0)
(0.132723 0.270109 0)
(0.115305 0.260068 0)
(0.101818 0.256303 0)
(0.0882922 0.257883 0)
(0.0717926 0.262183 0)
(0.0539538 0.26612 0)
(0.0346473 0.268763 0)
(0.0229051 0.266254 0)
(0.00777459 0.264094 0)
(3 -3.27425e-16 0)
(3 -2.58308e-17 0)
(3 3.93849e-16 0)
(3 -5.43017e-17 0)
(3 -1.26815e-15 0)
(3 -5.44699e-16 0)
(3 2.29552e-16 0)
(3 7.72159e-16 0)
(3 1.44521e-15 0)
(3 1.41089e-15 0)
(3 1.97724e-15 0)
(3 1.17269e-15 0)
(3 1.25085e-15 0)
(3 1.30003e-15 0)
(3 8.94418e-16 0)
(3 7.7275e-16 0)
(3 -1.47979e-16 0)
(3 -1.62126e-15 0)
(3 -2.03938e-15 0)
(3 -2.15772e-15 0)
(3 -1.8257e-15 0)
(3 -9.62496e-16 0)
(3 -1.2278e-15 0)
(3 -6.16244e-16 0)
(3 -8.47554e-16 0)
(3 -3.37402e-16 0)
(3 -5.49692e-17 0)
(3 -2.78745e-16 0)
(3 -5.52209e-16 0)
(3 -6.35132e-16 0)
(3 -4.02781e-16 0)
(3 6.39591e-16 0)
(3 9.68172e-16 0)
(3 1.10154e-15 0)
(3 6.52824e-16 0)
(3 -6.40828e-17 0)
(3 -1.93418e-16 0)
(3 -6.32118e-16 0)
(3 -4.40938e-16 0)
(3 -4.18567e-16 0)
(3 2.45942e-16 0)
(3 3.43501e-16 0)
(3 1.62389e-15 0)
(3 1.84702e-15 0)
(3 1.20987e-15 0)
(3 4.66316e-16 0)
(3 5.78217e-16 0)
(3 6.78012e-16 0)
(3 1.11461e-15 0)
(3 2.93314e-15 0)
(3 3.10129e-15 0)
(3 2.57996e-15 0)
(3 1.80439e-15 0)
(3 1.1161e-15 0)
(3 1.59467e-15 0)
(3 2.09197e-15 0)
(3 2.49712e-15 0)
(3 2.17262e-15 0)
(3 1.62619e-15 0)
(3 1.12074e-15 0)
(3 1.42328e-16 0)
(3 -1.41518e-15 0)