/*--------------------------------*- C++ -*----------------------------------*\
| =========                 |                                                 |
| \\      /  F ield         | OpenFOAM: The Open Source CFD Toolbox           |
|  \\    /   O peration     | Version:  v1812                                 |
|   \\  /    A nd           | Web:      www.OpenFOAM.com                      |
|    \\/     M anipulation  |                                                 |
\*---------------------------------------------------------------------------*/
FoamFile
{
    version     2.0;
    format      ascii;
    class       volScalarField;
    location    "0.2";
    object      p;
}
// * * * * * * * * * * * * * * * * * * * * * * * * * * * * * * * * * * * * * //

dimensions      [1 -1 -2 0 0 0 0];


internalField   nonuniform List<scalar> 
20400
(
94453.2
94450.3
94448.4
94438.4
94430.6
94420.6
94404.2
94390.6
94371.7
94343.5
94328.8
94307.8
94283.2
94256
94236.1
94222.2
94203.6
94180.5
94154.1
94127.6
94103.8
94083.1
94065.3
94051.8
94039.5
94033.4
94032.6
94036.6
94047.8
94063.3
94086.6
94116.2
94149
94182.1
94230.6
94275.3
94325
94381
94441.4
94515.6
94583.7
94656.8
94736
94815.5
94897.6
94983.2
95071.4
95158.1
95253.3
95333.6
95408.1
95489
95570.8
95647
95720.6
95789.8
95855.6
95917.3
95976.4
96030.5
96078.7
96123.2
96165.1
96204
96236.6
96263.4
96288
96310.2
96329.8
96341.7
96351.5
96354.2
96352.9
96349.6
96342.9
96332.9
96319.2
96302.7
96283.3
96260.9
96235.8
96208
96177.5
96144.5
96108.8
96070.7
96030
95986.8
95941.2
95893.3
95843.3
95791.3
95737.4
95681.7
95624.5
95565.9
95506.1
95445.3
95383.6
95321.2
95258.3
95195.1
95131.7
95068.5
95005.5
94943
94881.3
94820.5
94760.8
94702.4
94645.6
94590.5
94537.4
94486.5
94438
94392.2
94349.4
94309.6
94273
94239.9
94210.3
94184.3
94162
94143.4
94128.4
94117.2
94110.4
94107.9
94108.5
94112.1
94119.2
94129.7
94143.6
94160.9
94181.4
94204.8
94232.7
94262.6
94295.4
94330.9
94369
94409.5
94452.1
94496.7
94543.1
94591.4
94641.1
94692.4
94745
94798.9
94853.8
94909.8
94966.6
95024.2
95082.4
95141.2
95200.3
95259.7
95319.4
95379.2
95438.9
95498.5
95557.8
95616.8
95675.5
95733.6
95791.1
95847.9
95903.8
95958.9
96012.9
96065.7
96117.3
96167.5
96216.2
96263.3
96308.6
96352.2
96393.8
96433.4
96470.9
96506.1
96538.9
96569.2
96596.5
96620.7
96641.3
96658.7
96672.9
96684.2
96691.8
96695.6
96698
96697.3
96693.6
96686.6
96676.1
96662.2
96644.8
96624
96599.9
96572.5
96542
96508.5
96472.1
96432.7
96390.6
96345.6
96297.9
96247.5
96194.5
96138.9
96080.8
96020.2
95957.3
95892
95824.6
95755
95683.6
95610.5
95535.9
95460.1
95383.4
95306.1
95228.7
95151.4
95074.7
94998.9
94924.4
94851.7
94781.2
94713
94647.6
94585.3
94526.1
94470.4
94418.3
94369.9
94325.2
94284.5
94247.8
94215.5
94187.6
94164.2
94144.9
94129.4
94117.1
94107.8
94101.3
94097.4
94095.8
94096.6
94100.1
94106.3
94115.1
94126.4
94140.5
94156.3
94174.2
94194.2
94216.3
94240.2
94265.9
94293.3
94322.4
94353.2
94385.6
94419.5
94455
94492
94530.5
94570.4
94611.8
94654.6
94698.9
94744.6
94791.6
94840.1
94890
94941.2
94993.8
95047.7
95103
95159.5
95217.4
95276.6
95337.1
95398.8
95461.7
95525.8
95591.1
95657.5
95725
95793.5
95863.2
95933.8
96005.4
96077.9
96151.3
96225.5
96300.5
96376.3
96452.8
96529.9
96607.6
96685.8
96764.5
96843.7
96923.2
97003.1
97083.3
97163.7
97244.3
97325
97405.8
97486.7
97567.5
97648.2
97728.7
97809.1
97889.2
97968.9
98048.3
98127.3
98205.7
98283.7
98360.9
98437.6
98513.5
98588.6
98662.9
98736.4
98808.9
98880.4
98950.9
99020.4
99088.7
99155.9
99221.9
99286.6
99350.1
99412.2
99473
99532.4
99590.5
99647.2
99702.4
99756.3
99808.7
99859.7
99909.3
99957.5
100004
100050
100094
100137
100178
100218
100257
100295
100331
100367
100401
100434
100467
100498
100529
100559
100588
100616
100644
100671
100697
100723
100748
100773
100797
100821
100844
100867
100890
100911
100933
100954
100975
100995
101015
101034
101052
101071
101088
101106
101122
101139
101154
101169
101184
101198
101211
101224
101237
101248
101259
101270
101280
101290
101299
101308
101316
101324
101332
101339
101346
101353
101359
101366
101372
101378
101384
101389
101395
101401
101406
101412
101417
101423
101428
101433
101438
101444
101449
101454
101459
101464
101468
101473
101478
101482
101487
101491
101495
101499
101503
101507
101510
101514
101517
101520
101522
101525
101527
101529
101531
101533
101534
101536
101536
101537
101537
101538
101537
101537
101536
101535
101534
101533
101531
101529
101526
101524
101521
101517
101514
101510
101506
101502
101497
101492
101487
101482
101476
101470
101464
101458
101451
101444
101437
101430
101423
101415
101407
101399
101391
101383
101374
101365
101357
101348
101339
101330
94445.9
94441.4
94440
94430.6
94423.4
94411.9
94395.6
94387.2
94367.4
94355.1
94328.7
94324.5
94304.3
94285.2
94270.2
94256.3
94238.4
94216.8
94193.9
94170.6
94148.6
94128.1
94109.9
94095.9
94085.1
94080.8
94081.4
94085
94093.3
94104.1
94118.5
94133.8
94163.1
94200.6
94258.1
94301.4
94354.4
94410.3
94471.3
94538.3
94600.9
94667
94737.2
94807.7
94880.7
94957.2
95036.8
95115.8
95215.2
95305.7
95386.6
95473.7
95561
95641.2
95715.8
95782.7
95842.5
95907
95971.3
96028.7
96079.9
96129.3
96174.3
96211.4
96243.7
96271.6
96297.1
96319.4
96337.1
96348.6
96353.7
96354.4
96350.8
96346.9
96339.1
96328.3
96314
96297.2
96278.1
96256.2
96231.8
96204.6
96174.7
96142.2
96107.1
96069.5
96029.2
95986.3
95940.9
95893.3
95843.5
95791.7
95738
95682.6
95625.6
95567.1
95507.5
95446.7
95385.1
95322.7
95259.8
95196.6
95133.3
95070
95007
94944.5
94882.8
94822
94762.3
94703.9
94647
94591.9
94538.8
94487.9
94439.5
94393.7
94350.8
94311
94274.4
94241.3
94211.6
94185.6
94163.3
94144.8
94129.8
94118.5
94111.6
94109.2
94110
94113.7
94120.8
94131.4
94145.3
94162.7
94183.9
94207.4
94234.5
94264.7
94297.7
94333.4
94371.7
94412.2
94455
94499.7
94546.3
94594.7
94644.7
94696.1
94748.9
94802.9
94857.9
94913.9
94970.7
95028.3
95086.5
95145.2
95204.3
95263.7
95323.2
95382.7
95442.2
95501.5
95560.6
95619.4
95677.6
95735.3
95792.4
95848.7
95904.1
95958.6
96012
96064.1
96114.9
96164.3
96212.2
96258.7
96303.4
96346.5
96387.7
96427
96464.3
96499.3
96532.2
96562.5
96590.1
96614.5
96635.6
96653.4
96668.4
96680
96687.6
96692.7
96695.2
96694.8
96691.6
96685.1
96675.1
96661.5
96644.5
96624
96600.1
96572.9
96542.5
96509
96472.6
96433.2
96391
96346
96298.3
96247.8
96194.8
96139.1
96080.9
96020.3
95957.2
95891.9
95824.4
95754.8
95683.4
95610.3
95535.7
95460
95383.4
95306.2
95228.8
95151.5
95074.9
94999.2
94924.9
94852.3
94781.9
94713.9
94648.7
94586.5
94527.5
94471.9
94419.9
94371.7
94327.2
94286.6
94250.1
94217.9
94190
94166.5
94147.1
94131.6
94119.4
94110.1
94104
94100.2
94098.5
94099.6
94103
94109.3
94118.3
94129.8
94143.6
94159.5
94177.6
94197.7
94219.8
94243.8
94269.5
94297
94326.2
94357
94389.4
94423.3
94458.8
94495.8
94534.2
94574.2
94615.5
94658.3
94702.6
94748.2
94795.2
94843.6
94893.4
94944.6
94997.1
95050.9
95106.1
95162.6
95220.4
95279.5
95339.9
95401.5
95464.4
95528.4
95593.5
95659.8
95727.2
95795.7
95865.3
95935.8
96007.2
96079.6
96152.9
96227
96301.9
96377.5
96453.9
96530.9
96608.5
96686.6
96765.2
96844.3
96923.8
97003.6
97083.7
97164
97244.5
97325.2
97405.9
97486.6
97567.3
97647.9
97728.4
97808.6
97888.6
97968.3
98047.6
98126.5
98204.8
98282.7
98359.9
98436.4
98512.3
98587.3
98661.6
98735
98807.5
98878.9
98949.4
99018.8
99087.1
99154.3
99220.2
99284.9
99348.3
99410.5
99471.2
99530.7
99588.7
99645.4
99700.6
99754.5
99806.9
99857.9
99907.5
99955.8
100003
100048
100092
100135
100176
100217
100255
100293
100330
100365
100400
100433
100466
100497
100528
100558
100587
100615
100643
100670
100696
100722
100748
100772
100797
100820
100844
100867
100889
100911
100933
100954
100974
100994
101014
101033
101052
101070
101088
101105
101122
101138
101154
101169
101184
101198
101211
101224
101236
101248
101259
101270
101280
101289
101299
101307
101316
101324
101331
101339
101346
101353
101359
101365
101371
101377
101383
101389
101395
101400
101406
101411
101417
101422
101427
101433
101438
101443
101448
101453
101458
101463
101468
101472
101477
101481
101486
101490
101494
101498
101502
101506
101509
101512
101516
101518
101521
101524
101526
101528
101530
101532
101533
101534
101535
101536
101536
101536
101536
101535
101535
101534
101532
101531
101529
101527
101525
101522
101519
101516
101512
101509
101505
101500
101496
101491
101486
101480
101475
101469
101463
101457
101450
101443
101436
101429
101422
101414
101406
101398
101390
101382
101374
101365
101356
101348
101339
101330
94444.6
94441.7
94440.7
94432.3
94426.2
94413.9
94400.6
94389.1
94375.1
94352.3
94339.2
94323.5
94300.2
94275.9
94258.4
94245.3
94227.1
94204.4
94180.1
94155.9
94134.1
94114.3
94095.8
94078.5
94059.9
94044.8
94035.5
94034.1
94042.7
94056.9
94076.3
94104.4
94130.5
94164.2
94190.4
94235.4
94286.9
94337.4
94392.7
94461
94522.7
94586
94653.9
94724.4
94796
94870.4
94949.3
95041.1
95144.5
95236.3
95321.7
95410.7
95497.7
95579.1
95658
95735.1
95814.2
95883.2
95947.1
96009.5
96069.9
96121.8
96161
96193.8
96225
96251.7
96274.9
96295.7
96314.3
96329.8
96341.3
96349
96350.4
96349.1
96343.8
96336.6
96324.8
96309.5
96290.8
96267.9
96242.8
96214.7
96183.8
96150.3
96114.3
96075.7
96034.5
95990.8
95944.6
95896.4
95846
95793.8
95739.8
95684
95626.8
95568.2
95508.3
95447.5
95385.8
95323.5
95260.7
95197.6
95134.3
95071.2
95008.4
94946.1
94884.5
94823.9
94764.3
94706.1
94649.5
94594.6
94541.6
94490.9
94442.5
94396.9
94354.1
94314.3
94277.8
94244.7
94215
94189
94166.7
94148.2
94133.2
94121.9
94114.7
94112.3
94113.1
94116.6
94123.6
94133.8
94148
94165.5
94185.9
94209.5
94236.4
94266.3
94299.1
94334.6
94372.7
94413.1
94455.6
94500.1
94546.5
94594.6
94644.2
94695.3
94747.8
94801.5
94856.3
94912.1
94968.8
95026.2
95084.2
95142.8
95201.8
95261.1
95320.6
95380.2
95439.8
95499.2
95558.4
95617.3
95675.8
95733.8
95791.2
95848
95903.9
95958.8
96012.8
96065.7
96117.3
96167.7
96216.6
96263.9
96309.5
96353.3
96395.1
96434.9
96472.5
96507.8
96540.7
96570.9
96598.3
96622.5
96643.2
96660.5
96674.6
96685.7
96693.8
96697.6
96699.4
96698.4
96694.3
96686.9
96676.1
96662
96644.6
96623.8
96599.7
96572.4
96542
96508.5
96472.1
96432.8
96390.7
96345.8
96298.1
96247.8
96194.8
96139.3
96081.2
96020.7
95957.7
95892.5
95825
95755.4
95684
95610.9
95536.3
95460.6
95384
95306.8
95229.3
95152.1
95075.4
94999.7
94925.3
94852.7
94782.2
94714
94648.7
94586.4
94527.2
94471.6
94419.5
94371.1
94326.5
94285.8
94249.2
94216.8
94188.7
94165
94145.4
94129.4
94117.4
94108.5
94101.9
94097.9
94096.4
94097.4
94100.8
94107
94115.9
94127.3
94141.1
94157
94175.1
94195.2
94217.3
94241.3
94267
94294.6
94323.8
94354.7
94387.1
94421.2
94456.7
94493.8
94532.4
94572.4
94613.9
94656.8
94701.2
94746.9
94794
94842.6
94892.5
94943.7
94996.3
95050.3
95105.6
95162.2
95220.1
95279.3
95339.8
95401.5
95464.4
95528.6
95593.8
95660.2
95727.6
95796.1
95865.7
95936.2
96007.6
96080
96153.3
96227.3
96302.2
96377.8
96454.1
96531
96608.5
96686.6
96765.1
96844.1
96923.5
97003.2
97083.1
97163.3
97243.7
97324.2
97404.8
97485.4
97566
97646.5
97726.9
97807.1
97887
97966.5
98045.7
98124.5
98202.7
98280.4
98357.6
98434
98509.7
98584.7
98658.9
98732.1
98804.5
98875.9
98946.3
99015.6
99083.8
99150.9
99216.8
99281.4
99344.8
99406.9
99467.6
99527
99585
99641.7
99696.9
99750.7
99803.2
99854.2
99903.8
99952.1
99998.9
100044
100089
100131
100173
100213
100252
100290
100327
100362
100397
100430
100463
100494
100525
100555
100584
100613
100641
100668
100694
100720
100746
100771
100795
100819
100842
100865
100888
100910
100932
100953
100973
100994
101013
101033
101052
101070
101088
101105
101122
101138
101154
101169
101184
101198
101211
101224
101236
101248
101259
101270
101280
101289
101299
101307
101316
101324
101331
101339
101346
101352
101359
101365
101371
101377
101383
101389
101394
101400
101405
101411
101416
101422
101427
101432
101437
101442
101448
101452
101457
101462
101467
101472
101476
101481
101485
101489
101493
101497
101501
101504
101508
101511
101514
101517
101520
101522
101524
101526
101528
101530
101531
101532
101533
101534
101534
101534
101534
101533
101533
101532
101530
101529
101527
101525
101523
101520
101517
101514
101510
101507
101503
101498
101494
101489
101484
101479
101473
101467
101461
101455
101449
101442
101435
101428
101421
101413
101405
101398
101390
101381
101373
101365
101356
101347
101338
101330
94446.5
94447.8
94447.3
94439.1
94434.7
94424.7
94404.1
94393
94373.8
94357.6
94346
94333.7
94312.2
94290.6
94277.6
94265.6
94244.8
94219
94191
94162
94133.9
94110
94089.5
94075.1
94063
94051.7
94044.6
94042.6
94046.5
94054.4
94069.3
94089.2
94112.3
94142.1
94199.1
94246.6
94298
94356.2
94422.1
94495.2
94563.3
94636
94709.7
94789.1
94868.3
94949.8
95034.2
95120.2
95211
95290.9
95369.7
95451
95531.5
95608.6
95684.3
95758.8
95832.3
95897.8
95958.4
96015.5
96068.8
96117.1
96161.2
96201.6
96235.1
96261.2
96282.9
96301.7
96317.6
96330.3
96339.6
96345.5
96346
96341.8
96334.1
96326.2
96314.6
96299.3
96281.4
96260.2
96236.3
96209.3
96179.2
96145.7
96109.6
96071
96030.2
95987.2
95941.7
95894
95844.3
95792.5
95738.9
95683.6
95626.8
95568.5
95509
95448.4
95387
95325
95262.4
95199.5
95136.5
95073.6
95010.9
94948.8
94887.3
94826.7
94767.3
94709.1
94652.5
94597.6
94544.7
94494
94445.8
94400.2
94357.4
94317.7
94281.2
94248.1
94218.5
94192.4
94170.1
94151.6
94136.6
94125.2
94118
94115.6
94116.3
94119.8
94126.5
94137.1
94151.6
94168.8
94189.1
94212.5
94239.3
94269.1
94301.9
94337.4
94375.3
94415.6
94458
94502.5
94548.8
94596.8
94646.4
94697.5
94750
94803.7
94858.5
94914.3
94970.9
95028.3
95086.3
95144.8
95203.7
95262.8
95322.2
95381.6
95441.1
95500.4
95559.5
95618.3
95676.6
95734.5
95791.7
95848.1
95903.7
95958.4
96012
96064.6
96116
96166
96214.5
96261.5
96306.8
96350.4
96392
96431.6
96469
96504.1
96536.9
96567.1
96594.5
96618.7
96639.6
96657.1
96671.4
96682.6
96690.8
96695.8
96697.2
96696.3
96692.5
96685.4
96675
96661.2
96644.1
96623.5
96599.6
96572.5
96542.2
96508.9
96472.6
96433.3
96391.3
96346.4
96298.8
96248.5
96195.5
96139.9
96081.8
96021.2
95958.2
95892.8
95825.3
95755.7
95684.2
95611.1
95536.5
95460.7
95383.9
95306.7
95229.2
95152
95075.3
94999.7
94925.4
94852.8
94782.4
94714.3
94648.9
94586.6
94527.5
94471.8
94419.7
94371.3
94326.7
94286
94249.4
94217
94188.9
94165.1
94145.1
94129
94117.4
94108.4
94101.9
94097.9
94096.6
94097.5
94101
94107.3
94116.3
94127.7
94141.5
94157.5
94175.7
94195.9
94218.1
94242.1
94268
94295.6
94324.9
94355.9
94388.4
94422.6
94458.2
94495.4
94534
94574.1
94615.7
94658.7
94703.1
94748.9
94796.1
94844.7
94894.6
94945.9
94998.5
95052.5
95107.8
95164.5
95222.4
95281.6
95342.1
95403.8
95466.7
95530.8
95596
95662.4
95729.8
95798.3
95867.8
95938.2
96009.6
96081.9
96155
96229
96303.8
96379.3
96455.4
96532.3
96609.7
96687.6
96766
96844.9
96924.1
97003.7
97083.5
97163.5
97243.7
97324.1
97404.6
97485
97565.5
97645.8
97726
97806
97885.7
97965.1
98044.1
98122.7
98200.8
98278.3
98355.3
98431.6
98507.1
98582
98656
98729.1
98801.4
98872.6
98942.9
99012.1
99080.2
99147.2
99212.9
99277.5
99340.8
99402.8
99463.4
99522.8
99580.7
99637.3
99692.6
99746.4
99798.8
99849.9
99899.5
99947.8
99994.7
100040
100084
100127
100169
100209
100248
100286
100323
100359
100393
100427
100460
100491
100522
100552
100582
100610
100638
100666
100692
100718
100744
100769
100793
100817
100841
100864
100887
100909
100931
100952
100973
100993
101013
101032
101051
101070
101087
101105
101122
101138
101154
101169
101183
101197
101211
101224
101236
101248
101259
101270
101280
101289
101299
101307
101316
101324
101331
101339
101346
101352
101359
101365
101371
101377
101383
101388
101394
101399
101405
101410
101416
101421
101426
101431
101436
101441
101446
101451
101456
101461
101465
101470
101474
101479
101483
101487
101491
101495
101499
101502
101505
101509
101512
101514
101517
101519
101521
101523
101525
101527
101528
101529
101530
101530
101530
101530
101530
101530
101529
101528
101527
101525
101523
101521
101519
101516
101513
101510
101507
101503
101499
101495
101490
101486
101481
101476
101470
101464
101458
101452
101446
101439
101433
101426
101419
101411
101404
101396
101388
101380
101372
101364
101355
101347
101338
101330
94458.4
94456.5
94456.2
94444
94436.8
94425.4
94405.5
94389.9
94369.7
94344.1
94325.7
94312.5
94286
94262.7
94251.6
94239.1
94216.4
94187.7
94157
94126.6
94096.1
94071.8
94049.9
94026.7
94017.1
94001
93995.7
93996.9
94003.6
94018.1
94042.7
94070.9
94105.3
94146.6
94197.3
94244.5
94294
94350.4
94416.2
94483.2
94547.7
94616
94695.2
94773.5
94856.7
94942.2
95028.8
95114.6
95203.3
95279.6
95358.5
95440.6
95521
95599.1
95676.3
95752.8
95828
95898.3
95962.8
96019.8
96069.3
96114.5
96157.3
96196.1
96229
96255.7
96277.2
96294
96305.9
96314.8
96322.6
96328.5
96331.8
96332
96328.1
96320.9
96309.8
96294.5
96276.3
96254.2
96228.6
96202
96172.8
96140.9
96106.4
96068.8
96028.5
95985.6
95940.3
95892.9
95843.4
95791.9
95738.6
95683.5
95627
95569.1
95510
95449.9
95388.8
95327
95264.7
95202
95139.2
95076.5
95014
94952.1
94890.8
94830.4
94771.2
94713.2
94656.7
94602
94549.2
94498.6
94450.4
94404.8
94362.1
94322.4
94286
94252.9
94223.2
94197.2
94174.9
94156.3
94141.2
94129.8
94122.6
94120.1
94120.8
94124.1
94130.7
94141.8
94156
94173
94193
94216.4
94243
94272.7
94305.3
94340.7
94378.5
94418.7
94461
94505.3
94551.5
94599.4
94648.9
94700
94752.3
94806
94860.7
94916.4
94972.9
95030.3
95088.2
95146.7
95205.5
95264.6
95323.9
95383.3
95442.7
95501.9
95561
95619.7
95677.9
95735.7
95792.7
95849.1
95904.6
95959.3
96012.9
96065.5
96116.8
96166.8
96215.3
96262.3
96307.5
96351
96392.5
96432
96469.3
96504.4
96536.9
96567
96594.2
96618.4
96639.4
96656.9
96671.2
96682.3
96690.7
96695.9
96697.3
96696.2
96692.3
96685.1
96674.7
96661
96643.9
96623.4
96599.6
96572.5
96542.3
96509.1
96472.8
96433.7
96391.7
96346.9
96299.3
96249
96196.1
96140.5
96082.3
96021.7
95958.6
95893.2
95825.6
95755.9
95684.3
95611.1
95536.5
95460.6
95383.9
95306.7
95229.2
95152
95075.3
94999.6
94925.2
94852.6
94782
94714
94648.6
94586.2
94527.1
94471.4
94419.3
94370.9
94326.4
94285.8
94249.2
94216.8
94188.7
94164.7
94144.4
94128.4
94116.9
94108
94101.6
94097.7
94096.4
94097.5
94101
94107.4
94116.5
94128
94141.9
94158.1
94176.3
94196.7
94219
94243.2
94269.2
94296.9
94326.4
94357.4
94390.1
94424.3
94460.1
94497.4
94536.1
94576.3
94618
94661
94705.5
94751.4
94798.7
94847.3
94897.3
94948.6
95001.3
95055.4
95110.7
95167.4
95225.3
95284.6
95345.1
95406.8
95469.7
95533.8
95599
95665.3
95732.8
95801.2
95870.6
95941
96012.3
96084.5
96157.6
96231.4
96306
96381.3
96457.3
96533.9
96611.1
96688.9
96767.1
96845.7
96924.8
97004.1
97083.8
97163.7
97243.7
97323.8
97404
97484.3
97564.5
97644.6
97724.5
97804.3
97883.8
97962.9
98041.7
98120.1
98198
98275.3
98352.1
98428.2
98503.5
98578.2
98652
98724.9
98797
98868.1
98938.2
99007.2
99075.2
99142
99207.7
99272.1
99335.3
99397.2
99457.8
99517.1
99575
99631.5
99686.7
99740.5
99793
99844
99893.7
99942
99988.9
100035
100079
100122
100163
100204
100243
100281
100318
100354
100389
100422
100455
100487
100518
100549
100578
100607
100635
100662
100689
100716
100741
100767
100791
100815
100839
100862
100885
100908
100929
100951
100972
100992
101012
101032
101051
101069
101087
101105
101122
101138
101154
101169
101183
101198
101211
101224
101236
101248
101259
101270
101280
101290
101299
101308
101316
101324
101331
101339
101346
101352
101359
101365
101371
101377
101382
101388
101393
101399
101404
101410
101415
101420
101425
101430
101435
101440
101445
101450
101455
101459
101464
101468
101472
101477
101481
101485
101489
101492
101496
101499
101502
101505
101508
101511
101513
101516
101518
101520
101521
101523
101524
101525
101525
101526
101526
101526
101526
101525
101524
101523
101522
101520
101519
101517
101514
101512
101509
101506
101502
101499
101495
101491
101486
101482
101477
101472
101466
101461
101455
101449
101443
101436
101430
101423
101416
101409
101402
101394
101387
101379
101371
101363
101354
101346
101338
101330
94471.2
94468.8
94463.2
94455.6
94447
94433.2
94421.7
94413.1
94393.8
94365.3
94347.9
94336
94302.2
94272.4
94255.4
94235.8
94208.4
94178.3
94147.1
94116.9
94083.7
94062.8
94030.2
94011.1
93998.8
93984.3
93987
93984.8
93997.6
94010
94034.6
94067.4
94103.7
94147.3
94200
94251.6
94309.8
94372.6
94439.2
94516.8
94580
94648.8
94707.4
94783.6
94858.7
94938
95020.3
95103.4
95189.7
95266.5
95347.4
95430
95509.4
95585.9
95660
95731.5
95799.6
95863.6
95924.4
95980.9
96032.2
96079
96121.6
96159.2
96191.8
96218.7
96241.1
96260.7
96276.4
96287.1
96295.5
96303.5
96312.1
96318.7
96317.9
96310
96299.2
96285.8
96269
96249.4
96226.9
96200.9
96171.9
96139.8
96104.5
96066.1
96025.3
95983.2
95938.7
95892
95843
95791.9
95739
95684.4
95628.2
95570.6
95511.7
95451.8
95391
95329.5
95267.5
95205.2
95142.7
95080.2
95018
94956.2
94895.1
94834.8
94775.7
94717.8
94661.4
94606.7
94554
94503.5
94455.4
94409.9
94367.2
94327.6
94291.2
94258.1
94228.5
94202.4
94180
94161.3
94146.2
94134.7
94127.4
94124.9
94125.5
94128.8
94135.6
94146.7
94160.7
94177.6
94197.5
94220.7
94247.2
94276.8
94309.4
94344.6
94382.4
94422.4
94464.6
94508.8
94554.9
94602.8
94652.3
94703.3
94755.6
94809.2
94864
94919.6
94976.2
95033.5
95091.4
95149.7
95208.4
95267.4
95326.6
95385.9
95445.2
95504.4
95563.3
95621.9
95680
95737.6
95794.5
95850.7
95906.2
95960.7
96014.3
96066.7
96117.9
96167.8
96216.2
96263.1
96308.2
96351.6
96393
96432.4
96469.5
96504.4
96536.8
96566.7
96593.8
96618.1
96639.1
96656.6
96670.9
96682.1
96690.5
96695.6
96697.1
96696
96692
96684.9
96674.5
96660.9
96643.9
96623.5
96599.8
96572.9
96542.9
96509.7
96473.6
96434.5
96392.6
96347.8
96300.2
96249.9
96196.9
96141.2
96083
96022.2
95959
95893.5
95825.8
95756
95684.3
95611
95536.2
95460.2
95383.4
95306.1
95228.6
95151.3
95074.6
94998.8
94924.4
94851.7
94781.2
94713.1
94647.8
94585.4
94526.3
94470.6
94418.5
94370.2
94325.7
94285.1
94248.6
94216.2
94188.1
94163.8
94143.3
94127.4
94116
94107.2
94101
94097.3
94096.1
94097.3
94100.9
94107.5
94116.7
94128.4
94142.4
94158.7
94177.2
94197.7
94220.2
94244.6
94270.8
94298.8
94328.4
94359.7
94392.5
94426.9
94462.8
94500.2
94539.1
94579.5
94621.3
94664.5
94709.1
94755
94802.4
94851.1
94901.2
94952.6
95005.4
95059.5
95114.9
95171.6
95229.5
95288.8
95349.3
95410.9
95473.8
95537.8
95603
95669.2
95736.5
95804.9
95874.2
95944.5
96015.7
96087.8
96160.7
96234.4
96308.9
96384.1
96459.9
96536.4
96613.4
96690.9
96768.9
96847.3
96926.1
97005.2
97084.6
97164.1
97243.9
97323.8
97403.7
97483.7
97563.7
97643.5
97723.2
97802.6
97881.8
97960.7
98039.2
98117.3
98194.9
98272
98348.4
98424.3
98499.4
98573.8
98647.3
98720.1
98791.9
98862.8
98932.7
99001.5
99069.3
99135.9
99201.4
99265.7
99328.7
99390.5
99451
99510.2
99568.1
99624.6
99679.7
99733.5
99785.9
99837
99886.7
99935
99982
100028
100072
100115
100157
100197
100237
100275
100312
100348
100383
100417
100450
100482
100513
100544
100574
100603
100631
100659
100686
100712
100738
100764
100789
100813
100837
100861
100884
100906
100928
100950
100971
100992
101012
101031
101050
101069
101087
101105
101122
101138
101154
101169
101184
101198
101211
101224
101237
101248
101260
101270
101280
101290
101299
101308
101316
101324
101331
101339
101346
101352
101358
101365
101371
101376
101382
101387
101393
101398
101403
101408
101414
101419
101424
101429
101434
101438
101443
101448
101452
101457
101461
101465
101470
101474
101478
101481
101485
101489
101492
101495
101498
101501
101504
101506
101509
101511
101513
101515
101516
101517
101519
101519
101520
101520
101520
101520
101520
101519
101518
101517
101516
101514
101513
101510
101508
101506
101503
101500
101496
101493
101489
101485
101481
101476
101471
101466
101461
101456
101450
101445
101439
101432
101426
101419
101413
101406
101399
101392
101384
101377
101369
101361
101353
101345
101337
101330
94476.4
94471.8
94469.4
94458.6
94452.9
94440.2
94425.4
94418.1
94395.1
94369.6
94347.1
94342.9
94307.7
94277.9
94257.4
94233.2
94202.3
94168.2
94133.8
94103.8
94072.5
94037.9
94014.1
93997.1
93977.4
93972.7
93959.8
93976.7
93986.4
93996
94039.3
94063.1
94098.8
94139.6
94186
94224.9
94274.8
94333.8
94404.1
94500.9
94560.6
94623.1
94698.5
94770.1
94844.6
94922
95002
95084.2
95171.8
95254.8
95339.6
95426.5
95513.2
95598.3
95679.6
95753.5
95819.2
95878.7
95934.3
95986.6
96035.1
96079.9
96121.2
96157.7
96189.4
96216
96238.9
96259.4
96276.5
96289.1
96298.1
96304.6
96308.4
96309.1
96306.5
96298.9
96288.2
96275.1
96259.4
96239.6
96217.6
96191.9
96164
96132.9
96098.8
96062.4
96021.1
95979.9
95935.9
95889.8
95841.2
95790.6
95738.1
95684
95628.4
95571.5
95513.3
95454
95393.8
95332.7
95271
95208.9
95146.6
95084.5
95022.5
94961
94900.1
94840.1
94781.1
94723.4
94667.2
94612.6
94560
94509.6
94461.5
94416.1
94373.5
94333.9
94297.4
94264.4
94234.7
94208.5
94186.1
94167.3
94152.1
94140.5
94133.2
94130.6
94131.2
94134.5
94141.5
94152.4
94166.2
94182.8
94202.6
94225.7
94252.1
94281.6
94314
94349.1
94386.7
94426.7
94468.8
94512.9
94559
94606.8
94656.2
94707.1
94759.4
94812.9
94867.5
94923.1
94979.6
95036.7
95094.5
95152.8
95211.5
95270.4
95329.6
95388.8
95448.1
95507.2
95566
95624.5
95682.5
95740
95796.9
95853
95908.3
95962.7
96016.2
96068.5
96119.6
96169.3
96217.6
96264.3
96309.2
96352.4
96393.6
96432.8
96469.7
96504.3
96536.5
96566.1
96593.2
96617.3
96638.4
96656.1
96670.4
96681.8
96690.3
96695.4
96696.9
96695.8
96691.8
96684.7
96674.3
96660.8
96643.9
96623.7
96600.2
96573.4
96543.4
96510.4
96474.4
96435.4
96393.5
96348.7
96301.2
96250.8
96197.8
96142
96083.7
96022.8
95959.4
95893.8
95825.9
95755.9
95684.1
95610.6
95535.7
95459.6
95382.7
95305.3
95227.7
95150.4
95073.6
94997.8
94923.3
94850.6
94780
94711.8
94646.4
94584
94524.9
94469.2
94417.2
94368.9
94324.4
94283.9
94247.4
94215.1
94186.8
94162.5
94142
94126.1
94114.7
94106.1
94100
94096.5
94095.5
94096.8
94100.6
94107.3
94116.7
94128.6
94142.8
94159.3
94178
94198.8
94221.5
94246.1
94272.6
94300.7
94330.6
94362.1
94395.1
94429.7
94465.9
94503.5
94542.6
94583.1
94625
94668.4
94713.1
94759.2
94806.7
94855.5
94905.7
94957.2
95010
95064.2
95119.7
95176.4
95234.5
95293.7
95354.2
95416
95478.8
95542.8
95608
95674.2
95741.4
95809.6
95878.9
95949
96020.1
96091.9
96164.6
96238.1
96312.3
96387.2
96462.8
96538.9
96615.7
96692.9
96770.6
96848.7
96927.3
97006.1
97085.2
97164.6
97244
97323.6
97403.2
97482.8
97562.4
97641.9
97721.2
97800.4
97879.2
97957.8
98036
98113.7
98191
98267.8
98343.9
98419.5
98494.3
98568.4
98641.7
98714.1
98785.7
98856.4
98926
98994.7
99062.2
99128.7
99194
99258.1
99321
99382.6
99443
99502.1
99559.9
99616.3
99671.5
99725.2
99777.6
99828.7
99878.4
99926.8
99973.9
100020
100064
100107
100149
100190
100229
100268
100305
100341
100376
100410
100444
100476
100508
100539
100569
100598
100626
100654
100682
100709
100735
100761
100786
100810
100835
100858
100882
100904
100927
100949
100970
100991
101011
101031
101050
101069
101087
101105
101122
101138
101154
101170
101184
101198
101212
101225
101237
101249
101260
101271
101281
101291
101300
101308
101317
101325
101332
101339
101346
101352
101359
101365
101371
101376
101382
101387
101392
101398
101403
101408
101413
101418
101422
101427
101432
101437
101441
101446
101450
101454
101459
101463
101467
101470
101474
101478
101481
101485
101488
101491
101494
101497
101499
101501
101504
101506
101507
101509
101510
101511
101512
101513
101513
101514
101514
101514
101513
101512
101512
101510
101509
101507
101506
101503
101501
101499
101496
101493
101489
101486
101482
101478
101474
101470
101465
101461
101456
101450
101445
101439
101434
101428
101422
101415
101409
101402
101396
101389
101382
101374
101367
101360
101352
101345
101337
101329
94495.9
94483.9
94483.2
94472.3
94465.1
94452.7
94433.5
94423.1
94404.1
94374.6
94354.8
94340.7
94310.4
94277.2
94253.3
94225.9
94194.2
94158.3
94121.8
94084.5
94050.2
94024.4
93995.4
93980
93966.5
93948.7
93958.1
93964.7
93980.8
94003.9
94013.9
94067.3
94126.8
94147.2
94200
94245.2
94304.4
94360.6
94421.6
94500.1
94547.1
94630.8
94686.7
94750.5
94824
94901.9
94983.6
95066.1
95151.4
95230.2
95307.7
95387.6
95465.1
95545.1
95624.6
95700.3
95771.1
95837.1
95898.4
95954.9
96006.5
96053.8
96097.3
96136.6
96171.3
96202
96229.4
96252.8
96270.7
96284.1
96293.4
96300.4
96303
96301.4
96297.1
96289.7
96279.2
96266.1
96250.1
96230.9
96209.2
96184.4
96157.1
96126.6
96093.5
96058.1
96017.7
95977.4
95934.3
95888.8
95840.9
95791.1
95739.4
95685.9
95630.5
95573.7
95515.6
95456.5
95396.5
95335.8
95274.6
95213
95151.1
95089.3
95027.6
94966.4
94905.7
94845.8
94787
94729.4
94673.3
94618.8
94566.3
94516
94468
94422.7
94380.1
94340.6
94304.2
94271.1
94241.4
94215.2
94192.7
94173.8
94158.5
94146.7
94139.4
94136.8
94137.4
94140.7
94147.8
94158.5
94172
94188.5
94208.1
94231.1
94257.4
94286.9
94319.2
94354.2
94391.7
94431.5
94473.5
94517.5
94563.4
94611.1
94660.5
94711.3
94763.6
94817.1
94871.7
94927.3
94983.7
95040.9
95098.6
95156.8
95215.4
95274.3
95333.4
95392.6
95451.7
95510.7
95569.4
95627.8
95685.7
95743.1
95799.8
95855.8
95911
95965.3
96018.6
96070.8
96121.7
96171.3
96219.5
96266
96310.9
96353.9
96395
96434
96470.8
96505.3
96537.4
96566.9
96593.8
96617.8
96638.8
96656.4
96670.8
96682.3
96690.9
96695.8
96697.4
96696.2
96692.2
96685
96674.8
96661.3
96644.5
96624.4
96601
96574.4
96544.6
96511.7
96475.7
96436.8
96394.9
96350.1
96302.5
96252.1
96198.9
96143.1
96084.6
96023.5
95960
95894.1
95826.1
95755.9
95683.9
95610.2
95535.1
95458.8
95381.7
95304.1
95226.4
95148.9
95071.9
94996
94921.5
94848.8
94778.1
94710
94644.5
94582.2
94523
94467.3
94415.3
94367
94322.6
94282.2
94245.7
94213.3
94185
94160.6
94140.1
94124.3
94113
94104.6
94098.7
94095.4
94094.6
94096.1
94100.1
94107
94116.6
94128.7
94143.2
94160
94178.9
94199.9
94223
94247.9
94274.6
94303
94333.2
94364.9
94398.3
94433.1
94469.5
94507.4
94546.7
94587.5
94629.6
94673.2
94718.1
94764.3
94811.9
94860.9
94911.2
94962.8
95015.7
95069.9
95125.4
95182.2
95240.3
95299.5
95360
95421.6
95484.4
95548.4
95613.4
95679.4
95746.6
95814.7
95883.8
95953.8
96024.7
96096.5
96169.1
96242.4
96316.5
96391.2
96466.6
96542.5
96619
96695.9
96773.3
96851
96929.2
97007.6
97086.4
97165.3
97244.4
97323.6
97402.9
97482.2
97561.4
97640.5
97719.5
97798.2
97876.7
97954.9
98032.7
98110
98186.9
98263.3
98339.1
98414.2
98488.7
98562.5
98635.4
98707.6
98778.8
98849.1
98918.5
98986.9
99054.2
99120.4
99185.5
99249.4
99312.1
99373.6
99433.9