/*--------------------------------*- C++ -*----------------------------------*\
| =========                 |                                                 |
| \\      /  F ield         | OpenFOAM: The Open Source CFD Toolbox           |
|  \\    /   O peration     | Version:  v1812                                 |
|   \\  /    A nd           | Web:      www.OpenFOAM.com                      |
|    \\/     M anipulation  |                                                 |
\*---------------------------------------------------------------------------*/
FoamFile
{
    version     2.0;
    format      ascii;
    class       surfaceScalarField;
    location    "0.2";
    object      phi;
}
// * * * * * * * * * * * * * * * * * * * * * * * * * * * * * * * * * * * * * //

dimensions      [1 0 -1 0 0 0 0];
oriented        oriented;


internalField   nonuniform List<scalar> 
40240
(
0.000199488
-0.00031337
0.000583013
-0.000496493
0.00116606
-0.000695345
0.00179816
-0.000743349
0.0024687
-0.000780495
0.00309282
-0.000731353
0.00353781
-0.000548309
0.00384476
-0.000405054
0.00390639
-0.000156715
0.00373831
7.70707e-05
0.00374086
-8.84888e-05
0.00361974
3.87292e-05
0.00308133
0.000461384
0.00212929
0.000878068
0.00117267
0.000887189
0.000569892
0.000538038
0.000185494
0.000326023
-0.000255324
0.00038655
-0.000950217
0.000649835
-0.00208545
0.00109668
-0.00371944
0.00160225
-0.00579109
0.0020469
-0.0082079
0.00239936
-0.0108871
0.00266961
-0.0138224
0.00293205
-0.0169088
0.00309542
-0.0200677
0.00317899
-0.0232244
0.00318228
-0.0261944
0.00300609
-0.0288368
0.00268535
-0.030985
0.0022016
-0.0325847
0.00166094
-0.0337793
0.00124911
-0.0345869
0.000876067
-0.0350315
0.000533918
-0.0354385
0.000514044
-0.0358398
0.000516279
-0.0361421
0.00042267
-0.0362067
0.000192806
-0.0360646
-7.04369e-06
-0.0356088
-0.000317412
-0.0348169
-0.000648586
-0.0336189
-0.00105336
-0.0320867
-0.00138466
-0.0302903
-0.00164524
-0.028322
-0.00181276
-0.0264751
-0.00168705
-0.0250671
-0.00124751
-0.0239148
-0.000993387
-0.0215952
-0.00216649
-0.0190618
-0.00238168
-0.0163441
-0.00256668
-0.0133919
-0.00280236
-0.0103402
-0.00290291
-0.00731698
-0.00287347
-0.00445213
-0.00271665
-0.00188737
-0.00241509
0.00050818
-0.00225464
0.00275828
-0.00211997
0.00485375
-0.00196695
0.00672681
-0.00174387
0.00836211
-0.00150637
0.00985288
-0.00136351
0.0112096
-0.00123163
0.0123293
-0.000996985
0.013185
-0.000735678
0.0138862
-0.000584346
0.0145165
-0.000515659
0.0150413
-0.000416699
0.0153866
-0.000244268
0.0154831
2.99929e-06
0.015405
0.00015943
0.0152351
0.000248025
0.0150324
0.000269242
0.0148041
0.000283801
0.0145361
0.0003089
0.0142184
0.000344769
0.0138678
0.000362799
0.0135101
0.000354692
0.0131584
0.000333864
0.0128212
0.000303791
0.0124991
0.00027251
0.0121912
0.000241237
0.0118972
0.000209129
0.0116162
0.000177034
0.0113452
0.000147036
0.0110758
0.000125165
0.0107997
0.000111335
0.0105134
0.000100617
0.010216
9.01461e-05
0.00990694
8.01609e-05
0.00958599
7.02702e-05
0.00925382
5.97152e-05
0.00891042
4.92093e-05
0.00855592
3.872e-05
0.00819187
2.71116e-05
0.00781991
1.42323e-05
0.00744107
8.93904e-07
0.0070555
-1.19644e-05
0.00666275
-2.35952e-05
0.00626155
-3.28669e-05
0.00585047
-4.01654e-05
0.00542871
-4.51838e-05
0.00499574
-4.83399e-05
0.00455183
-5.03463e-05
0.00409775
-5.16441e-05
0.00363459
-5.24451e-05
0.00316345
-5.26969e-05
0.00268548
-5.23357e-05
0.00220203
-5.14718e-05
0.00171482
-5.03281e-05
0.00122594
-4.91667e-05
0.000737754
-4.81629e-05
0.000252767
-4.73508e-05
-0.000226395
-4.59351e-05
-0.000696951
-4.4831e-05
-0.00115691
-4.32576e-05
-0.00160428
-4.11759e-05
-0.00203741
-3.83966e-05
-0.00245467
-3.50052e-05
-0.00285389
-3.16373e-05
-0.00323365
-2.76745e-05
-0.00359324
-2.30081e-05
-0.0039321
-1.78138e-05
-0.00424971
-1.19097e-05
-0.00454176
-5.51587e-06
-0.00480344
9.33647e-07
-0.00504051
6.9606e-06
-0.00525772
1.38745e-05
-0.00545045
2.15918e-05
-0.0056166
2.95256e-05
-0.00575532
3.73692e-05
-0.00586639
4.56559e-05
-0.0059492
5.32659e-05
-0.0060033
6.13316e-05
-0.00602881
7.27383e-05
-0.00602501
8.47425e-05
-0.0059953
9.29704e-05
-0.00593682
0.000101352
-0.00585066
0.000111268
-0.00573895
0.000122008
-0.00560321
0.000133356
-0.00544481
0.000145079
-0.00526479
0.000157061
-0.00506364
0.000168844
-0.00484247
0.000180451
-0.00460211
0.000192034
-0.00434261
0.00020267
-0.00406402
0.000212226
-0.00376632
0.000220574
-0.00344949
0.000227619
-0.00311358
0.000233378
-0.00275896
0.00023803
-0.00238638
0.000241838
-0.00199708
0.0002451
-0.00159265
0.00024809
-0.00117484
0.000251018
-0.000745362
0.000254027
-0.000305782
0.000257205
0.000142185
0.000260028
0.000595748
0.000263486
0.00105287
0.000267113
0.00151192
0.00027061
0.00197131
0.000273766
0.00242976
0.000276184
0.00288628
0.000277492
0.00333988
0.000277513
0.00378966
0.000276257
0.00423497
0.000273943
0.00467486
0.000270257
0.00510833
0.000265527
0.00553437
0.000259616
0.00595178
0.000252847
0.00635894
0.000245653
0.00675419
0.000238166
0.00713601
0.000230289
0.00750309
0.000221855
0.00785429
0.000212777
0.00818836
0.000203084
0.00850399
0.000192879
0.00879971
0.000182345
0.00907421
0.00017144
0.0093261
0.000160029
0.00955335
0.000148032
0.00975314
0.000135522
0.00992243
0.000122847
0.01006
0.000110454
0.0101674
9.84728e-05
0.0102476
8.466e-05
0.010296
7.35319e-05
0.0103077
6.193e-05
0.0103002
4.93498e-05
0.0102647
4.04449e-05
0.0102029
3.02245e-05
0.01011
1.95832e-05
0.00998387
8.79126e-06
0.00982776
-1.89686e-06
0.00964145
-1.22999e-05
0.00942516
-2.21487e-05
0.00917906
-3.12684e-05
0.00890386
-3.94272e-05
0.00860067
-4.68258e-05
0.00827046
-5.3387e-05
0.00791401
-5.90703e-05
0.00753204
-6.39328e-05
0.00712524
-6.79948e-05
0.00669423
-7.12506e-05
0.00623953
-7.36796e-05
0.00576161
-7.52797e-05
0.00526087
-7.60105e-05
0.00473783
-7.56091e-05
0.00419315
-7.42627e-05
0.00362764
-7.22834e-05
0.0030422
-6.96585e-05
0.00243779
-6.62621e-05
0.00181543
-6.21338e-05
0.00117634
-5.74859e-05
0.000521819
-5.23894e-05
-0.000146449
-4.67294e-05
-0.000826109
-4.07386e-05
-0.00151487
-3.45219e-05
-0.00221038
-2.7779e-05
-0.00291012
-2.04479e-05
-0.00361127
-1.24202e-05
-0.00431045
-4.31018e-06
-0.00500475
4.32135e-06
-0.00569136
1.36586e-05
-0.00636725
2.3466e-05
-0.00702968
3.3843e-05
-0.00767603
4.47342e-05
-0.00830371
5.59628e-05
-0.00891039
6.74994e-05
-0.00949401
7.93721e-05
-0.0100534
9.20257e-05
-0.0105871
0.0001049
-0.0110939
0.000117961
-0.0115731
0.000131202
-0.0120241
0.000144584
-0.0124462
0.00015804
-0.0128385
0.000171459
-0.0131998
0.000184754
-0.0135288
0.000197791
-0.0138246
0.000210425
-0.0140879
0.000222128
-0.0143206
0.000232695
-0.014526
0.000241978
-0.0147077
0.000250951
-0.0148673
0.000259906
-0.0150056
0.000266982
-0.0151255
0.0002757
-0.0152299
0.000284422
-0.0153165
0.000291726
-0.015381
0.000299151
-0.0154261
0.00030606
-0.0154538
0.000312503
-0.015462
0.000318989
-0.0154591
0.000325413
-0.0154409
0.000329587
-0.0154086
0.000333759
-0.0153635
0.000337915
-0.0153065
0.000341717
-0.0152387
0.000345045
-0.0151606
0.000347885
-0.015073
0.000350264
-0.0149763
0.000352211
-0.0148712
0.000353748
-0.014758
0.000354896
-0.0146371
0.000355673
-0.0145091
0.000356091
-0.0143741
0.00035615
-0.0142326
0.000355845
-0.0140846
0.000355173
-0.0139304
0.000354143
-0.0137701
0.000352764
-0.0136039
0.000351074
-0.0134318
0.000349106
-0.013254
0.000346893
-0.0130705
0.000344468
-0.0128814
0.000341854
-0.0126869
0.000339064
-0.012487
0.000336105
-0.0122819
0.000332989
-0.0120717
0.000329709
-0.0118564
0.00032627
-0.0116361
0.000322675
-0.0114111
0.00031893
-0.0111811
0.000315028
-0.0109464
0.000310966
-0.0107068
0.000307031
-0.0104625
0.000302964
-0.0102136
0.000298685
-0.00996015
0.000294163
-0.00970225
0.000289442
-0.00944
0.0002846
-0.0091735
0.000279702
-0.00890286
0.00027483
-0.00862821
0.000270023
-0.0083497
0.00026531
-0.00806749
0.000260725
-0.00778176
0.000256266
-0.00749265
0.000251913
-0.0072003
0.000247665
-0.00690486
0.000243534
-0.00660644
0.00023952
-0.00630516
0.000235599
-0.00600111
0.000231742
-0.00569455
0.00022818
-0.00538564
0.000224726
-0.00507455
0.000221424
-0.00476143
0.000218231
-0.00444642
0.00021514
-0.00412964
0.000212148
-0.00381125
0.000209273
-0.00349142
0.000206516
-0.00317018
0.000203795
-0.00284742
0.00020092
-0.00252331
0.000198318
-0.00219816
0.000196005
-0.00187209
0.000193865
-0.00154523
0.000191879
-0.00121771
0.000190075
-0.000889697
0.000188478
-0.000561361
0.00018706
-0.00023283
0.000185768
9.56375e-05
0.000184501
0.000423768
0.000183459
0.000751494
0.000182603
0.00107867
0.000181938
0.00140511
0.000181464
0.00173064
0.000181167
0.00205509
0.000181021
0.00237834
0.000181014
0.00270023
0.000181152
0.00302063
0.000181434
0.00333944
0.000181836
0.00365655
0.000182343
0.00397189
0.000182947
0.00428537
0.000183628
0.00459693
0.000184395
0.0049065
0.000185219
0.00521402
0.000186103
0.0055194
0.000187038
0.00582261
0.000187993
0.0061236
0.000188952
0.00642231
0.000189927
0.00671872
0.000190886
0.00701285
0.000191773
0.00730476
0.000192576
0.00759447
0.000193323
0.007882
0.000194032
0.00816738
0.000194693
0.00845065
0.000195289
0.00873187
0.000195811
0.00901108
0.000196264
0.00928835
0.000196649
0.00956374
0.000196963
0.00983731
0.000197201
0.0101091
0.000197357
0.0103793
0.000197428
0.0106477
0.000197411
0.0109145
0.000197296
0.0111796
0.000197091
0.0114431
0.000196773
0.011705
0.000196349
0.0119652
0.000195761
0.0122239
0.000194981
0.0124812
0.000193993
0.012737
0.000192763
0.0129914
0.000191303
0.0132443
0.000189673
0.0134956
0.000187907
0.0137451
0.000186015
0.0139925
0.000183931
0.0142379
0.00018165
0.0144808
0.000179171
0.0147212
0.000176484
0.0149588
0.000173572
0.0151934
0.000170429
0.0154247
0.000167067
0.0156524
0.000163497
0.0158763
0.000159709
0.016096
0.000155712
0.0163112
0.000151538
0.0165216
0.000147173
0.0167267
0.000142663
0.0169263
0.000137959
0.0171201
0.000133101
0.0173077
0.00012809
0.0174889
0.000122797
0.0176634
0.000117436
0.0178309
0.000112002
0.0179911
0.000106437
0.0181439
0.000100752
0.018289
9.49559e-05
0.0184263
8.90589e-05
0.0185556
8.3057e-05
0.0186768
7.698e-05
0.0187901
7.08581e-05
0.0188955
6.47274e-05
0.018993
5.85965e-05
0.0190824
5.24478e-05
0.0191637
4.6296e-05
0.0192371
4.01794e-05
0.019303
3.41668e-05
0.0193615
2.83549e-05
0.0194133
2.2383e-05
0.0194585
1.63953e-05
0.0194971
1.0474e-05
0.0195295
4.54944e-06
0.0195557
-1.29915e-06
0.0195763
-6.98512e-06
0.0195914
-1.24876e-05
0.0196011
-1.75996e-05
0.0196062
-2.26794e-05
0.0196075
-2.88116e-05
0.0196058
-3.42199e-05
0.0196
-3.8597e-05
0.0195908
-4.32189e-05
0.0195787
-4.77894e-05
0.019564
-5.23388e-05
0.0195471
-5.67717e-05
0.0195281
-6.10443e-05
0.0195073
-6.51819e-05
0.0194851
-6.92128e-05
0.0194615
-7.30682e-05
0.0194369
-7.67626e-05
0.0194114
-8.02826e-05
0.0193852
-8.37484e-05
0.0193586
-8.71139e-05
0.0193317
-9.03699e-05
0.0193047
-9.34625e-05
0.0192775
-9.63394e-05
0.0192503
-9.91118e-05
0.0192232
-0.000101764
0.0191963
-0.000104267
0.0191695
-0.000106611
0.0191429
-0.000108802
0.0191167
-0.000110856
0.0190909
-0.000112779
0.0190656
-0.000114576
0.0190408
-0.000116238
0.0190165
-0.000117742
0.0189929
-0.000119076
0.0189698
-0.000120234
0.0189472
-0.000121219
0.0189253
-0.00012203
0.0189038
-0.000122652
0.0188829
-0.000123086
0.0188623
-0.000123339
0.0188422
-0.000123433
0.0188225
-0.00012338
0.0188032
-0.000123191
0.0187843
-0.00012286
0.0187657
-0.000122387
0.0187475
-0.000121765
0.0187295
-0.000120993
0.018712
-0.000120066
0.0186949
-0.000118984
0.0186782
-0.000117761
0.0186614
-0.000116389
0.0186448
-0.000114876
0.0186286
-0.00011323
0.0186127
-0.00011148
0.0185971
-0.000109623
0.0185819
-0.000107596
0.018567
-0.000105426
0.0185523
-0.000103144
0.0185381
-0.000100763
0.0185242
-9.82734e-05
0.0185108
-9.56889e-05
0.0184979
-9.3032e-05
0.0184854
-9.03083e-05
0.0184735
-8.74947e-05
0.0184621
-8.46017e-05
0.0184514
-8.16647e-05
0.0184412
-7.86824e-05
0.0184318
-7.56615e-05
0.018423
-7.26053e-05
0.0184149
-6.95117e-05
0.0184076
-6.6419e-05
0.0184011
-6.32915e-05
0.0183953
-6.01629e-05
0.0183903
-5.70235e-05
0.0183861
-5.38818e-05
0.0183827
-5.07767e-05
0.01838
-4.76913e-05
0.0183782
-4.46208e-05
0.018377
-4.15569e-05
0.0183765
-3.85466e-05
0.0183768
-3.55464e-05
0.018378
-3.25723e-05
0.0183801
-2.96694e-05
0.0183831
-2.68654e-05
0.0183867
-2.40867e-05
0.018391
-2.14021e-05
0.0183958
-1.84915e-05
0.0184008
-1.54365e-05
0.0184044
-1.09564e-05
0.0184052
-4.97946e-06
-2.09056e-06
0.00066887
-0.00109901
0.00143502
-0.00138027
0.00224716
-0.00162356
0.00299674
-0.00160734
0.00365432
-0.00155064
0.00409815
-0.00128363
0.00438371
-0.000938882
0.004618
-0.000742881
0.00458423
-0.000219341
0.00436243
0.000207006
0.00347118
0.00071554
0.00256604
0.000861602
0.00128922
0.00166047
-0.00052875
0.0026228
-0.00271111
0.00300006
-0.00504048
0.00280144
-0.00754836
0.00276993
-0.0103894
0.00316841
-0.0136652
0.00387601
-0.0174433
0.00483432
-0.0217175
0.00584516
-0.0263977
0.00670456
-0.0312892
0.00727709
-0.0361339
0.0075099
-0.0407401
0.00753946
-0.0449476
0.0073148
-0.048723
0.00697671
-0.0520965
0.00658491
-0.0550511
0.00600184
-0.0575747
0.00525984
-0.0596521
0.00433633
-0.061264
0.00333913
-0.0620449
0.00211984
-0.0621269
0.00101238
-0.0617084
0.000197293
-0.0605231
-0.00056808
-0.0589467
-0.000934201
-0.0572481
-0.00113846
-0.0554628
-0.00145296
-0.0535391
-0.00179011
-0.0516244
-0.00208414
-0.0496815
-0.00244035
-0.0476042
-0.002976
-0.0453936
-0.00343763
-0.043053
-0.00382369
-0.0405327
-0.00416602
-0.0377944
-0.00425471
-0.034817
-0.00405635
-0.0314188
-0.00422272
-0.0275437
-0.00587257
-0.0234519
-0.00630581
-0.0194237
-0.00642953
-0.0154193
-0.00664257
-0.0114985
-0.00666254
-0.00765448
-0.00655836
-0.00385845
-0.00635517
-3.17562e-06
-0.00609142
0.00412436
-0.00620008
0.00842704
-0.00625769
0.0125594
-0.00594823
0.0163019
-0.0053506
0.0196673
-0.00474587
0.0226342
-0.00421562
0.025093
-0.00358496
0.0270797
-0.00288427
0.0287138
-0.00227393
0.0301349
-0.00191262
0.0313835
-0.00167463
0.0323689
-0.00131718
0.0329722
-0.000764571
0.0332088
-0.000154163
0.0331662
0.000272967
0.0329509
0.000534421
0.0326262
0.000655454
0.0322304
0.000732355
0.0317476
0.000832514
0.0311678
0.000953351
0.0305267
0.00101968
0.0298764
0.00100714
0.029241
0.000957085
0.0286277
0.000889668
0.0280353
0.000821196
0.0274635
0.00075183
0.0269155
0.000677574
0.0263939
0.000599519
0.0258978
0.000523652
0.0254197
0.000462857
0.0249503
0.0004189
0.0244842
0.000383332
0.0240194
0.000349874
0.0235549
0.000317815
0.0230905
0.000286146
0.022626
0.000253758
0.0221615
0.000221617
0.0216971
0.00018946
0.0212329
0.000156301
0.0207693
0.000121814
0.0203063
8.75982e-05
0.0198429
5.53208e-05
0.0193792
2.52631e-05
0.0189138
-5.65378e-07
0.0184454
-2.13917e-05
0.0179729
-3.79268e-05
0.0174954
-5.05199e-05
0.0170131
-6.06213e-05
0.0165265
-6.90216e-05
0.0160363
-7.60392e-05
0.0155433
-8.15902e-05
0.0150484
-8.56272e-05
0.0145526
-8.84027e-05
0.0140573
-9.02626e-05
0.0135643
-9.17065e-05
0.0130758
-9.31862e-05
0.0125945
-9.48419e-05
0.0121237
-9.66976e-05
0.0116654
-9.85952e-05
0.0112221
-9.9964e-05
0.0107962
-0.000100654
0.0103891
-9.98409e-05
0.0100022
-9.75443e-05
0.00963729
-9.49558e-05
0.00929614
-9.14329e-05
0.00897976
-8.63088e-05
0.00868844
-7.99151e-05
0.00842183
-7.19488e-05
0.00818254
-6.27785e-05
0.00797897
-5.35682e-05
0.00780467
-4.31441e-05
0.0076497
-3.13078e-05
0.00752082
-1.8387e-05
0.00742143
-4.76734e-06
0.00735054
9.26736e-06
0.00730937
2.34549e-05
0.00730012
4.13085e-05
0.00730799
6.07711e-05
0.00734976
7.92226e-05
0.00742226
9.92674e-05
0.00752178
0.000118532
0.00764633
0.000139178
0.00779548
0.000161224
0.00796799
0.000184559
0.00816257
0.000208954
0.00837805
0.00023403
0.00861354
0.000259411
0.00886876
0.00028444
0.00914343
0.000308341
0.00943662
0.000332254
0.00974792
0.000354516
0.0100773
0.000374615
0.0104248
0.000392109
0.010791
0.000406644
0.0111759
0.000418169
0.0115799
0.000427024
0.0120025
0.000433846
0.0124428
0.000439356
0.0128994
0.000444255
0.0133703
0.000449094
0.0138532
0.000454268
0.0143454
0.000459996
0.014844
0.000466643
0.0153468
0.00047464
0.0158512
0.000483608
0.0163545
0.000493267
0.0168541
0.000503023
0.0173483
0.000512095
0.0178352
0.000519701
0.018314
0.000525287
0.0187841
0.000528358
0.0192459
0.000527587
0.0196998
0.000522858
0.0201436
0.000517391
0.0205741
0.000511766
0.0209891
0.00050541
0.0213881
0.00049738
0.0217709
0.00048719
0.0221379
0.000474414
0.0224893
0.000459295
0.0228238
0.000442762
0.0231401
0.000425233
0.0234358
0.000407744
0.0237086
0.000390253
0.0239575
0.000371629
0.0241816
0.000351415
0.0243792
0.000329919
0.0245473
0.000307171
0.0246839
0.000283376
0.0247882
0.00025886
0.0248642
0.000232686
0.0249119
0.000208186
0.0249206
0.000186144
0.0249019
0.000164424
0.0248459
0.000149198
0.024763
0.000130677
0.0246547
0.000109838
0.0245155
8.80683e-05
0.0243437
6.58485e-05
0.0241431
4.28698e-05
0.0239125
2.19341e-05
0.0236507
3.28447e-06
0.0233591
-1.52155e-05
0.0230382
-3.17264e-05
0.0226894
-4.66688e-05
0.0223138
-6.01719e-05
0.0219125
-7.20234e-05
0.0214861
-8.22991e-05
0.0210355
-9.10397e-05
0.0205616
-9.82639e-05
0.020065
-0.000104
0.0195465
-0.000108312
0.0190069
-0.000111215
0.0184469
-0.000112396
0.0178675
-0.000111992
0.0172698
-0.000110498
0.0166547
-0.000107919
0.0160235
-0.000104182
0.0153776
-9.94539e-05
0.0147186
-9.39433e-05
0.0140484
-8.76224e-05
0.0133692
-8.05554e-05
0.0126829
-7.29057e-05
0.0119919
-6.4678e-05
0.0112989
-5.57218e-05
0.0106067
-4.59117e-05
0.00991824
-3.50315e-05
0.00923686
-2.39799e-05
0.00856592
-1.22734e-05
0.0079087
1.92958e-07
0.00726805
1.35807e-05
0.0066468
2.80404e-05
0.0060477
4.34375e-05
0.00547319
5.97112e-05
0.00492542
7.68799e-05
0.00440603
9.50744e-05
0.00391644
0.000114597
0.00345869
0.000134007
0.00303375
0.000154002
0.00264213
0.000174696
0.002284
0.000196135
0.00195949
0.000218116
0.00166905
0.00024027
0.0014136
0.00026235
0.00119426
0.000283971
0.00101167
0.000304832
0.000865377
0.000324551
0.000753592
0.000341859
0.000674116
0.000356725
0.00062257
0.000369182
0.00059915
0.00038123
0.000599042
0.000397654
0.000614036
0.000410543
0.000656416
0.00042176
0.000717387
0.000433524
0.000802148
0.000444908
0.000910819
0.000455758
0.00104001
0.000465983
0.00118858
0.000475799
0.00135505
0.000484821
0.00153739
0.000492505
0.00173495
0.000499696
0.00194705
0.000506362
0.00217264
0.000512362
0.00241075
0.0005176
0.00266048
0.000522057
0.00292105
0.000525748
0.00319173
0.000528698
0.0034719
0.000530934
0.00376097
0.000532481
0.00405844
0.00053336
0.00436384
0.000533586
0.00467678
0.000533155
0.00499692
0.000532055
0.00532398
0.000530275
0.00565773
0.000527825
0.00599799
0.000524727
0.00634463
0.00052104
0.00669749
0.000516831
0.00705645
0.000512173
0.00742137
0.00050713
0.00779209
0.000501754
0.00816845
0.000496077
0.00855029
0.000490109
0.00893743
0.000483877
0.00932972
0.000477361
0.00972702
0.000470562
0.0101292
0.00046347
0.0105363
0.000456088
0.0109481
0.000448396
0.0113647
0.000440384
0.011786
0.000432553
0.012212
0.000424319
0.0126425
0.000415599
0.0130777
0.000406457
0.0135173
0.000397038
0.0139613
0.000387486
0.0144096
0.000377896
0.0148621
0.000368384
0.0153185
0.000359011
0.0157787
0.000349828
0.0162425
0.000340918
0.0167095
0.000332321
0.0171795
0.000324043
0.0176522
0.000316113
0.0181273
0.000308572
0.0186045
0.000301433
0.0190834
0.000294674
0.0195638
0.000288272
0.0200454
0.000282449
0.020528
0.000276795
0.0210114
0.000271554
0.0214953
0.000266674
0.0219795
0.000262093
0.0224639
0.000257762
0.0229482
0.000253602
0.0234327
0.0002495
0.023917
0.00024576
0.0244008
0.000242151
0.0248839
0.000238877
0.0253664
0.000235956
0.0258481
0.000233399
0.0263287
0.000231276
0.0268079
0.000229652
0.0272854
0.000228547
0.0277609
0.00022786
0.028234
0.000227499
0.0287048
0.000227452
0.0291731
0.000227768
0.0296385
0.000228467
0.030101
0.00022957
0.0305603
0.000231079
0.0310161
0.000232983
0.0314683
0.000235234
0.0319166
0.000237805
0.032361
0.000240705
0.0328012
0.000243936
0.033237
0.000247455
0.0336684
0.000251219
0.0340951
0.000255197
0.0345172
0.000259335
0.0349346
0.000263633
0.0353472
0.000268026
0.035755
0.000272492
0.036158
0.000277006
0.0365562
0.000281486
0.0369496
0.000285886
0.0373384
0.000290221
0.0377225
0.000294451
0.038102
0.000298465
0.0384771
0.000302218
0.0388479
0.000305753
0.0392146
0.00030912
0.0395772
0.000312324
0.0399357
0.000315349
0.0402904
0.000318176
0.0406413
0.000320814
0.0409886
0.000323274
0.0413322
0.000325557
0.0416724
0.00032766
0.0420092
0.000329576
0.0423427
0.000331297
0.0426729
0.000332816
0.0429999
0.000334108
0.0433238
0.00033518
0.0436445
0.000335981
0.0439622
0.000336531
0.0442769
0.000336748
0.0445885
0.000336608
0.0448972
0.000336096
0.045203
0.000335126
0.0455059
0.000333652
0.045806
0.000331723
0.0461033
0.000329401
0.0463976
0.000326758
0.0466887
0.000323723
0.0469766
0.000320329
0.0472608
0.000316594
0.0475412
0.000312476
0.0478176
0.000307914
0.0480898
0.000302874
0.0483575
0.000297372
0.0486204
0.000291448
0.0488782
0.000285099
0.0491307
0.000278347
0.0493774
0.000271241
0.0496181
0.000263758
0.0498524
0.000255984
0.05008
0.000247817
0.0503004
0.000239367
0.0505134
0.000230662
0.0507188
0.00022136
0.0509164
0.000211835
0.0511057
0.000202163
0.0512866
0.000192247
0.0514589
0.000182065
0.0516224
0.000171626
0.051777
0.000160944
0.0519225
0.000150033
0.052059
0.000138956
0.0521865
0.000127794
0.0523052
0.000116603
0.0524149
0.000105333
0.0525156
9.39509e-05
0.0526073
8.25382e-05
0.0526903
7.11685e-05
0.0527651
5.97132e-05
0.0528325
4.82149e-05
0.0528923
3.7037e-05
0.0529446
2.59566e-05
0.0529896
1.48279e-05
0.0530278
3.63593e-06
0.0530594
-7.49124e-06
0.0530848
-1.83558e-05
0.0531044
-2.88413e-05
0.0531189
-3.9258e-05
0.0531284
-4.91189e-05
0.0531328
-5.96376e-05
0.0531329
-6.96448e-05
0.0531298
-7.91709e-05
0.0531232
-8.83301e-05
0.0531135
-9.72806e-05
0.0531009
-0.000106045
0.0530858
-0.000114613
0.0530684
-0.000122965
0.0530492
-0.000131085
0.0530281
-0.000138869
0.0530056
-0.000146333
0.0529817
-0.000153508
0.0529568
-0.000160484
0.0529312
-0.000167249
0.0529049
-0.000173775
0.0528781
-0.000180005
0.0528508
-0.000185932
0.0528234
-0.000191598
0.0527958
-0.000196988
0.0527682
-0.000202105
0.0527405
-0.000206926
0.0527128
-0.000211433
0.0526853
-0.000215642
0.0526579
-0.000219585
0.0526309
-0.000223273
0.0526041
-0.000226722
0.0525779
-0.000229911
0.052552
-0.000232795
0.0525267
-0.000235338
0.0525019
-0.000237521
0.0524775
-0.00023935
0.0524535
-0.000240827
0.0524299
-0.000241929
0.0524067
-0.000242648
0.0523838
-0.000243
0.0523612
-0.000243029
0.0523388
-0.00024277
0.0523167
-0.000242252
0.0522949
-0.00024147
0.0522733
-0.000240424
0.052252
-0.0002391
0.052231
-0.000237486
0.0522103
-0.000235565
0.05219
-0.000233335
0.0521699
-0.000230801
0.0521498
-0.000227984
0.0521297
-0.000224903
0.05211
-0.00022155
0.0520905
-0.000218011
0.0520713
-0.000214197
0.0520523
-0.000210052
0.0520335
-0.000205634
0.052015
-0.000200993
0.0519967
-0.000196151
0.0519787
-0.000191101
0.051961
-0.000185852
0.0519437
-0.000180475
0.0519269
-0.000174927
0.0519104
-0.000169191
0.0518943
-0.000163313
0.0518787
-0.000157356
0.0518637
-0.000151348
0.0518493
-0.00014526
0.0518355
-0.000139107
0.0518224
-0.00013293
0.0518099
-0.000126657
0.051798
-0.000120326
0.0517868
-0.000113975
0.0517762
-0.000107581
0.0517663
-0.000101228
0.0517571
-9.49559e-05
0.0517487
-8.87521e-05
0.0517409
-8.25681e-05
0.0517338
-7.6423e-05
0.0517273
-7.03283e-05
0.0517216
-6.43183e-05
0.0517167
-5.84131e-05
0.0517126
-5.25693e-05
0.0517092
-4.68132e-05
0.0517062
-4.10333e-05
0.051704
-3.56645e-05
0.0517016
-2.93147e-05
0.0516997
-2.34649e-05
0.0516996
-1.77029e-05
0.0517002
-9.29095e-06
-3.77975e-06
0.00070986
-0.00192575
0.00158215
-0.00236879
0.00236066
-0.0025167
0.0030204
-0.00238039
0.00354112
-0.0021831
0.00387293
-0.00172323
0.0041524
-0.00132383
0.00440636
-0.00109935
0.00439564
-0.000306037
0.00381016
0.000700668
0.00279907
0.00163792
0.00143461
0.00214333
-0.000579507
0.00359671
-0.00369604
0.00566614
-0.00784038
0.00707182
-0.0124622
0.00734924
-0.0172839
0.00752167
-0.0223209
0.00815033
-0.0275814
0.00909574
-0.0329996
0.0102226
-0.0383914
0.0112157
-0.0435565
0.0118553
-0.0483582
0.0120712
-0.0527346
0.0118855
-0.0566642
0.011473
-0.0600325
0.0106971
-0.0626863
0.00965424
-0.06456
0.00849459
-0.06565
0.00714286
-0.0661279
0.00579072
-0.0660746
0.00435531
-0.0657117
0.00306197
-0.0654053
0.00195026
-0.0648777
0.000463334
-0.0641943
-0.000395829
-0.0630175
-0.00160617
-0.0613681
-0.00243364
-0.0595598
-0.00280894
-0.0576392
-0.00322684
-0.0554341
-0.00384413
-0.0532037
-0.00415442
-0.0510682
-0.00441399
-0.0488797
-0.00499928
-0.0465518
-0.00559632
-0.0441088
-0.00609407
-0.0415011
-0.0065983
-0.0385314
-0.0070466
-0.0348441
-0.00756404
-0.0305364
-0.0083477
-0.0261328
-0.0100967
-0.0217792
-0.0104827
-0.0176352
-0.0103999
-0.0136021
-0.0105037
-0.00964529
-0.0104493
-0.00568357
-0.010352
-0.00161166
-0.0102615
0.00268113
-0.0102399
0.007073
-0.0104505
0.0115439
-0.0105871
0.0162043
-0.0104697
0.021057
-0.0100742
0.0257744
-0.00934667
0.0298903
-0.00823126
0.0333072
-0.0069148
0.036188
-0.00569133
0.038636
-0.00466052
0.0407158
-0.00394102
0.0424449
-0.00336092
0.043832
-0.00266868
0.0449114
-0.00181211
0.0457209
-0.000928348
0.0462291
-0.000198837
0.0464808
0.000315808
0.0465574
0.000615602
0.0465348
0.000781487
0.0464288
0.000957167
0.0462153
0.00117805
0.0458613
0.00137446
0.0453888
0.00146861
0.0448162
0.0015038
0.0441966
0.00147049
0.0435619
0.00140196
0.0429341
0.00130848
0.042332
0.0011907
0.0417659
0.00105735
0.0412369
0.00092466
0.040736
0.000815417
0.0402475
0.000738479
0.0397623
0.000678765
0.0392781
0.000623839
0.0387948
0.000570325
0.0383127
0.000516607
0.0378337
0.000460158
0.0373562
0.000405274
0.0368783
0.000352419
0.0363993
0.000299664
0.0359197
0.000245469
0.0354397
0.000191672
0.0349596
0.00014035
0.0344788
9.23098e-05
0.0339974
4.92259e-05
0.0335152
1.27999e-05
0.0330313
-1.77294e-05
0.032546
-4.31059e-05
0.03206
-6.52917e-05
0.0315743
-8.53753e-05
0.03109
-0.000103583
0.0306078
-0.000119315
0.0301281
-0.000132052
0.0296508
-0.000141814
0.0291765
-0.000149034
0.028706
-0.000154502
0.0282406
-0.000159043
0.0277825
-0.000163395
0.0273342
-0.000168128
0.0268985
-0.000172897
0.0264781
-0.000177495
0.0260757
-0.000181658
0.0256934
-0.000183972
0.0253322
-0.000183647
0.0249934
-0.000182324
0.0246791
-0.000179902
0.0243904
-0.000175066
0.0241278
-0.000168155
0.0238907
-0.000159257
0.0236808
-0.000148738
0.0235069
-0.000136554
0.0233635
-0.0001224
0.0232401
-0.000106496
0.0231431
-8.88051e-05
0.0230756
-7.02416e-05
0.0230384
-5.17623e-05
0.0230335
-2.83393e-05
0.0230507
-2.02959e-06
0.0230984
2.34529e-05
0.023176
5.03861e-05
0.0232844
7.79575e-05
0.0234215
0.000106884
0.0235863
0.000137263
0.0237778
0.00016917
0.023995
0.000202598
0.0242367
0.000237393
0.0245017
0.000273298
0.0247886
0.000309952
0.0250962
0.000346556
0.0254233
0.000382525
0.0257695
0.00041774
0.0261346
0.000450601
0.0265182
0.000480593
0.0269196
0.000507312
0.0273383
0.000530328
0.0277737
0.000549457
0.0282252
0.000565115
0.028692
0.000578093
0.0291731
0.000589268
0.0296671
0.00059937
0.0301729
0.000608922
0.030689
0.000618255
0.0312141
0.000627714
0.0317468
0.000637757
0.0322853
0.000649054
0.032827
0.000661983
0.0333693
0.000676443
0.0339096
0.00069162
0.0344458
0.000706348
0.0349765
0.000719218
0.0355007
0.000729087
0.0360176
0.000734798
0.0365257
0.000735302
0.0370223
0.000732725
0.0375079
0.000727048
0.0379831
0.000718554
0.0384479
0.000707482
0.0389013
0.000693748
0.0393414
0.000677518
0.0397664
0.000658812
0.0401741
0.000637769
0.0405633
0.000614868
0.0409326
0.000590366
0.0412812
0.000564908
0.0416081
0.000538651
0.041912
0.000511195
0.042191
0.000482236
0.0424435
0.000451319
0.0426667
0.000418567
0.0428575
0.000384835
0.0430137
0.000350974
0.0431354
0.000316971
0.0432243
0.000283636
0.0432828
0.000252271
0.0433062
0.000220417
0.0433027
0.000191349
0.0432697
0.000169359
0.0432042
0.000143777
0.0431034
0.000115676
0.0429674
8.57568e-05
0.042799
5.51642e-05
0.0425994
2.54968e-05
0.0423697
-2.47951e-06
0.0421104
-2.96955e-05
0.0418223
-5.45175e-05
0.0415065
-7.70764e-05
0.0411639
-9.7379e-05
0.0407954
-0.000115377
0.040402
-0.000131165
0.0399845
-0.000144766
0.0395436
-0.000156196
0.0390802
-0.000165464
0.038595
-0.000172582
0.0380889
-0.000177531
0.0375628
-0.00018032
0.0370176
-0.000181114
0.036454
-0.000180234
0.0358731
-0.000177693
0.0352759
-0.000173555
0.0346636
-0.000167901
0.0340374
-0.000160799
0.033399
-0.000152405
0.0327502
-0.00014292
0.0320933
-0.000132433
0.0314307
-0.000121168
0.0307652
-0.000108977
0.0300996
-9.57259e-05
0.0294371
-8.13672e-05
0.0287811
-6.6893e-05
0.0281349
-5.19869e-05
0.0275024
-3.64684e-05
0.0268868
-1.99521e-05
0.0262914
-2.22227e-06
0.0257191
1.67891e-05
0.0251727
3.66789e-05
0.0246543
5.79881e-05
0.024166
8.05921e-05
0.0237099
0.000104586
0.023286
0.000129884
0.0228964
0.000155402
0.0225415
0.000182008
0.0222213
0.000210251
0.0219356
0.000239918
0.0216843
0.000270349
0.0214681
0.000300964
0.021288
0.000330901
0.0211448
0.000359312
0.0210382
0.000386425
0.0209653
0.000410122
0.020926
0.000428941
0.0209203
0.000447729
0.0209324
0.000466251
0.020971
0.000484808
0.0210337
0.000501383
0.021118
0.00051716
0.0212216
0.000532648
0.0213495
0.000547523
0.0215019
0.000561679
0.0216756
0.000575045
0.0218692
0.000587511
0.0220809
0.000598924
0.0223094
0.000609255
0.0225539
0.000618693
0.0228133
0.000627226
0.0230866
0.000634797
0.0233729
0.000641321
0.0236713
0.000646781
0.023981
0.000651213
0.0243011
0.000654675
0.024631
0.000657226
0.0249699
0.000658916
0.0253174
0.000659783
0.0256726
0.000659838
0.0260353
0.000659058
0.0264049
0.000657387
0.0267812
0.000654762
0.0271639
0.000651151
0.027553
0.00064654
0.0279483
0.000640989
0.0283499
0.000634584
0.0287577
0.000627435
0.0291716
0.000619667
0.0295915
0.000611378
0.0300172
0.000602647
0.0304486
0.00059352
0.0308855
0.000584063
0.0313275
0.000574272
0.0317746
0.000564159
0.0322265
0.000553707
0.032683
0.000542917
0.0331441
0.000531751
0.0336095
0.000520189
0.0340793
0.000508625
0.0345532
0.000496688
0.0350314
0.000484286
0.0355137
0.000471418
0.036
0.000458174