/*--------------------------------*- C++ -*----------------------------------*\
| =========                 |                                                 |
| \\      /  F ield         | OpenFOAM: The Open Source CFD Toolbox           |
|  \\    /   O peration     | Version:  v1812                                 |
|   \\  /    A nd           | Web:      www.OpenFOAM.com                      |
|    \\/     M anipulation  |                                                 |
\*---------------------------------------------------------------------------*/
FoamFile
{
    version     2.0;
    format      ascii;
    class       volScalarField;
    location    "0.2";
    object      T;
}
// * * * * * * * * * * * * * * * * * * * * * * * * * * * * * * * * * * * * * //

dimensions      [0 0 0 1 0 0 0];


internalField   nonuniform List<scalar> 
20400
(
287.308
287.303
287.304
287.299
287.296
287.292
287.286
287.281
287.27
287.253
287.243
287.223
287.204
287.173
287.126
287.047
286.896
286.665
286.388
286.119
285.883
285.684
285.519
285.392
285.301
285.241
285.196
285.154
285.104
285.045
284.986
284.935
284.893
284.859
284.847
284.841
284.848
284.872
284.907
284.958
285.018
285.082
285.154
285.233
285.33
285.455
285.612
285.779
285.924
286.025
286.147
286.285
286.442
286.611
286.789
286.976
287.17
287.371
287.577
287.786
287.994
288.195
288.386
288.565
288.721
288.851
288.958
289.046
289.119
289.173
289.215
289.241
289.257
289.266
289.268
289.265
289.257
289.245
289.229
289.211
289.19
289.166
289.141
289.113
289.083
289.051
289.017
288.981
288.943
288.902
288.86
288.815
288.769
288.721
288.672
288.622
288.571
288.519
288.467
288.414
288.36
288.307
288.253
288.199
288.146
288.093
288.04
287.988
287.937
287.887
287.839
287.792
287.747
287.703
287.662
287.623
287.587
287.553
287.522
287.494
287.47
287.448
287.43
287.414
287.402
287.394
287.389
287.388
287.389
287.393
287.4
287.41
287.424
287.44
287.458
287.48
287.505
287.532
287.562
287.595
287.629
287.665
287.703
287.742
287.784
287.826
287.87
287.916
287.962
288.01
288.058
288.108
288.158
288.208
288.26
288.312
288.364
288.416
288.469
288.522
288.574
288.627
288.678
288.73
288.781
288.832
288.882
288.932
288.98
289.028
289.075
289.121
289.166
289.21
289.252
289.293
289.333
289.371
289.407
289.442
289.475
289.505
289.534
289.56
289.584
289.605
289.623
289.638
289.651
289.661
289.667
289.671
289.673
289.673
289.67
289.664
289.655
289.643
289.628
289.611
289.59
289.567
289.541
289.512
289.482
289.448
289.413
289.374
289.334
289.291
289.246
289.198
289.148
289.096
289.043
288.987
288.929
288.87
288.809
288.746
288.682
288.617
288.552
288.486
288.419
288.353
288.288
288.223
288.16
288.098
288.038
287.98
287.925
287.872
287.822
287.775
287.731
287.69
287.653
287.619
287.589
287.562
287.539
287.521
287.505
287.493
287.484
287.477
287.472
287.47
287.47
287.472
287.476
287.483
287.492
287.503
287.516
287.531
287.547
287.566
287.586
287.608
287.631
287.656
287.682
287.709
287.738
287.769
287.8
287.833
287.868
287.903
287.94
287.978
288.017
288.057
288.098
288.141
288.185
288.229
288.276
288.323
288.371
288.421
288.471
288.523
288.575
288.629
288.684
288.74
288.797
288.854
288.913
288.972
289.033
289.094
289.156
289.219
289.283
289.347
289.412
289.478
289.544
289.61
289.677
289.745
289.813
289.881
289.95
290.019
290.088
290.157
290.227
290.296
290.365
290.435
290.504
290.574
290.643
290.712
290.781
290.849
290.917
290.985
291.052
291.119
291.185
291.251
291.316
291.38
291.443
291.506
291.568
291.629
291.69
291.749
291.808
291.865
291.921
291.977
292.031
292.084
292.136
292.187
292.237
292.285
292.333
292.379
292.424
292.467
292.51
292.551
292.591
292.63
292.667
292.704
292.739
292.773
292.806
292.838
292.869
292.9
292.929
292.957
292.984
293.011
293.037
293.062
293.086
293.11
293.133
293.156
293.178
293.199
293.22
293.24
293.26
293.28
293.299
293.318
293.336
293.355
293.372
293.389
293.406
293.423
293.439
293.455
293.47
293.485
293.499
293.513
293.527
293.54
293.553
293.565
293.577
293.589
293.6
293.61
293.62
293.63
293.639
293.648
293.656
293.664
293.672
293.679
293.686
293.693
293.699
293.706
293.712
293.717
293.723
293.729
293.734
293.74
293.745
293.75
293.755
293.76
293.765
293.77
293.775
293.78
293.785
293.79
293.795
293.8
293.805
293.81
293.814
293.819
293.824
293.828
293.833
293.837
293.841
293.845
293.849
293.853
293.857
293.861
293.865
293.868
293.872
293.875
293.878
293.881
293.884
293.886
293.888
293.891
293.893
293.895
293.896
293.898
293.899
293.9
293.901
293.901
293.902
293.902
293.902
293.901
293.901
293.9
293.899
293.897
293.896
293.894
293.891
293.889
293.886
293.883
293.88
293.876
293.872
293.868
293.864
293.859
293.854
293.849
293.843
293.838
293.832
293.826
293.82
293.813
293.807
293.8
293.794
293.787
293.78
293.773
293.766
293.759
293.752
293.745
287.311
287.306
287.306
287.301
287.297
287.289
287.279
287.271
287.252
287.234
287.214
287.193
287.154
287.108
287.036
286.879
286.589
286.216
285.872
285.606
285.399
285.226
285.074
284.939
284.813
284.689
284.559
284.416
284.264
284.113
283.97
283.841
283.735
283.657
283.621
283.597
283.593
283.603
283.615
283.636
283.656
283.685
283.719
283.764
283.827
283.916
284.033
284.15
284.244
284.304
284.421
284.547
284.675
284.825
284.986
285.158
285.334
285.526
285.745
285.996
286.277
286.578
286.893
287.221
287.55
287.858
288.129
288.363
288.567
288.741
288.881
288.983
289.054
289.106
289.139
289.159
289.166
289.164
289.155
289.14
289.121
289.099
289.074
289.047
289.017
288.986
288.952
288.916
288.878
288.838
288.796
288.752
288.707
288.659
288.611
288.56
288.509
288.457
288.404
288.35
288.296
288.242
288.188
288.134
288.081
288.028
287.975
287.924
287.873
287.823
287.775
287.728
287.683
287.639
287.598
287.559
287.523
287.489
287.459
287.431
287.406
287.384
287.366
287.351
287.339
287.33
287.325
287.324
287.326
287.33
287.338
287.348
287.361
287.377
287.397
287.418
287.443
287.47
287.5
287.532
287.566
287.602
287.64
287.68
287.721
287.764
287.808
287.854
287.9
287.948
287.996
288.044
288.094
288.144
288.194
288.245
288.297
288.349
288.401
288.453
288.505
288.557
288.608
288.659
288.71
288.76
288.81
288.858
288.906
288.954
289
289.045
289.089
289.131
289.172
289.212
289.251
289.288
289.323
289.357
289.389
289.419
289.447
289.473
289.497
289.518
289.536
289.551
289.564
289.574
289.581
289.586
289.588
289.588
289.585
289.579
289.571
289.559
289.545
289.527
289.507
289.483
289.458
289.429
289.398
289.365
289.329
289.29
289.25
289.207
289.161
289.114
289.064
289.012
288.958
288.902
288.845
288.785
288.724
288.662
288.598
288.533
288.468
288.401
288.335
288.269
288.203
288.138
288.075
288.013
287.953
287.895
287.84
287.787
287.737
287.69
287.646
287.606
287.569
287.535
287.505
287.478
287.455
287.436
287.421
287.409
287.4
287.393
287.389
287.386
287.386
287.388
287.392
287.399
287.408
287.419
287.432
287.447
287.464
287.483
287.503
287.525
287.548
287.573
287.599
287.627
287.656
287.687
287.718
287.752
287.786
287.821
287.858
287.896
287.935
287.976
288.017
288.06
288.104
288.149
288.195
288.242
288.291
288.34
288.391
288.442
288.495
288.549
288.604
288.66
288.716
288.774
288.832
288.892
288.952
289.013
289.075
289.138
289.201
289.265
289.33
289.395
289.461
289.527
289.594
289.662
289.729
289.797
289.866
289.935
290.003
290.072
290.141
290.211
290.28
290.349
290.418
290.487
290.556
290.624
290.693
290.761
290.828
290.896
290.962
291.029
291.094
291.16
291.224
291.288
291.351
291.414
291.475
291.536
291.596
291.655
291.713
291.77
291.826
291.881
291.935
291.988
292.04
292.09
292.14
292.188
292.235
292.281
292.325
292.369
292.411
292.452
292.491
292.53
292.568
292.604
292.639
292.673
292.706
292.739
292.77
292.8
292.829
292.857
292.885
292.912
292.938
292.963
292.988
293.012
293.035
293.058
293.08
293.101
293.123
293.143
293.164
293.183
293.203
293.222
293.24
293.258
293.276
293.293
293.31
293.327
293.343
293.358
293.373
293.388
293.403
293.416
293.43
293.443
293.455
293.468
293.479
293.49
293.501
293.511
293.521
293.53
293.539
293.548
293.556
293.563
293.571
293.578
293.584
293.591
293.597
293.603
293.609
293.614
293.62
293.625
293.63
293.635
293.64
293.645
293.65
293.655
293.66
293.665
293.67
293.675
293.68
293.684
293.689
293.694
293.698
293.703
293.708
293.712
293.717
293.721
293.725
293.73
293.734
293.738
293.742
293.746
293.749
293.753
293.757
293.76
293.763
293.766
293.769
293.772
293.775
293.777
293.779
293.782
293.784
293.785
293.787
293.788
293.789
293.79
293.791
293.791
293.792
293.792
293.791
293.791
293.79
293.79
293.788
293.787
293.785
293.784
293.782
293.779
293.777
293.774
293.771
293.767
293.764
293.76
293.756
293.751
293.747
293.742
293.737
293.732
293.726
293.721
293.715
293.709
293.702
293.696
293.689
293.683
293.676
293.669
293.662
293.655
293.647
293.64
287.305
287.301
287.301
287.297
287.292
287.28
287.266
287.247
287.217
287.179
287.144
287.097
287.038
286.971
286.837
286.509
285.998
285.507
285.152
284.902
284.698
284.507
284.315
284.118
283.912
283.703
283.5
283.316
283.156
283.028
282.93
282.862
282.81
282.772
282.743
282.737
282.736
282.736
282.743
282.763
282.77
282.781
282.795
282.813
282.836
282.868
282.91
282.964
283.025
283.074
283.142
283.218
283.293
283.374
283.462
283.557
283.661
283.769
283.896
284.055
284.252
284.488
284.762
285.084
285.453
285.855
286.269
286.684
287.101
287.508
287.881
288.198
288.447
288.639
288.785
288.895
288.971
289.016
289.037
289.04
289.034
289.016
288.992
288.964
288.934
288.901
288.867
288.83
288.792
288.751
288.709
288.665
288.619
288.572
288.524
288.474
288.423
288.37
288.317
288.264
288.209
288.155
288.1
288.046
287.992
287.938
287.886
287.834
287.784
287.735
287.687
287.641
287.596
287.553
287.512
287.473
287.437
287.403
287.373
287.345
287.32
287.298
287.28
287.265
287.253
287.245
287.24
287.239
287.241
287.245
287.252
287.262
287.276
287.292
287.311
287.333
287.357
287.384
287.414
287.445
287.479
287.515
287.553
287.593
287.634
287.676
287.72
287.765
287.811
287.858
287.906
287.955
288.004
288.054
288.104
288.154
288.205
288.255
288.306
288.358
288.409
288.46
288.512
288.563
288.613
288.663
288.713
288.762
288.809
288.856
288.902
288.947
288.991
289.034
289.075
289.115
289.154
289.191
289.226
289.259
289.291
289.32
289.347
289.373
289.395
289.416
289.433
289.447
289.459
289.468
289.475
289.478
289.48
289.479
289.476
289.469
289.46
289.448
289.433
289.415
289.394
289.371
289.345
289.316
289.285
289.252
289.216
289.177
289.136
289.093
289.048
289
288.951
288.899
288.845
288.789
288.731
288.672
288.61
288.548
288.484
288.419
288.354
288.288
288.222
288.156
288.09
288.025
287.962
287.899
287.839
287.781
287.725
287.672
287.622
287.575
287.531
287.49
287.453
287.419
287.388
287.361
287.338
287.319
287.303
287.29
287.281
287.274
287.269
287.267
287.266
287.268
287.272
287.278
287.287
287.298
287.31
287.325
287.341
287.36
287.379
287.401
287.424
287.448
287.474
287.502
287.531
287.561
287.592
287.625
287.659
287.694
287.731
287.769
287.807
287.848
287.889
287.931
287.975
288.02
288.066
288.113
288.161
288.21
288.261
288.312
288.365
288.419
288.473
288.529
288.586
288.643
288.701
288.761
288.821
288.882
288.943
289.005
289.068
289.132
289.196
289.261
289.326
289.392
289.459
289.526
289.593
289.661
289.729
289.797
289.866
289.934
290.003
290.072
290.141
290.21
290.278
290.347
290.415
290.484
290.552
290.619
290.687
290.754
290.82
290.886
290.951
291.016
291.08
291.144
291.207
291.269
291.33
291.39
291.45
291.509
291.567
291.623
291.679
291.734
291.787
291.84
291.891
291.942
291.991
292.039
292.086
292.131
292.175
292.219
292.261
292.301
292.341
292.38
292.417
292.453
292.488
292.522
292.555
292.587
292.618
292.649
292.678
292.706
292.734
292.761
292.787
292.812
292.837
292.862
292.885
292.908
292.931
292.953
292.974
292.995
293.016
293.036
293.056
293.075
293.094
293.113
293.131
293.149
293.166
293.183
293.199
293.215
293.23
293.245
293.26
293.274
293.287
293.3
293.313
293.325
293.337
293.348
293.358
293.368
293.378
293.387
293.396
293.404
293.412
293.419
293.426
293.433
293.439
293.445
293.451
293.457
293.462
293.467
293.472
293.477
293.482
293.487
293.491
293.496
293.5
293.505
293.51
293.514
293.519
293.523
293.528
293.532
293.537
293.541
293.546
293.55
293.554
293.559
293.563
293.567
293.571
293.575
293.579
293.583
293.586
293.59
293.594
293.597
293.6
293.603
293.606
293.609
293.612
293.615
293.617
293.619
293.622
293.623
293.625
293.627
293.628
293.629
293.63
293.631
293.632
293.632
293.632
293.632
293.632
293.631
293.631
293.63
293.628
293.627
293.625
293.623
293.621
293.619
293.616
293.613
293.61
293.607
293.604
293.6
293.596
293.592
293.587
293.583
293.578
293.573
293.568
293.563
293.557
293.551
293.545
293.539
293.533
293.526
293.52
293.513
293.506
293.499
293.492
293.484
287.309
287.307
287.307
287.3
287.291
287.271
287.237
287.192
287.127
287.059
286.991
286.907
286.82
286.728
286.491
285.939
285.263
284.742
284.395
284.136
283.9
283.673
283.455
283.26
283.095
282.969
282.882
282.823
282.793
282.778
282.783
282.79
282.797
282.813
282.835
282.835
282.814
282.793
282.782
282.777
282.769
282.762
282.756
282.751
282.748
282.75
282.761
282.778
282.802
282.822
282.845
282.877
282.911
282.941
282.978
283.021
283.069
283.119
283.176
283.245
283.331
283.439
283.576
283.748
283.964
284.227
284.537
284.898
285.314
285.781
286.275
286.762
287.213
287.616
287.969
288.27
288.51
288.686
288.803
288.867
288.893
288.899
288.893
288.873
288.845
288.813
288.779
288.743
288.705
288.665
288.623
288.58
288.534
288.488
288.439
288.39
288.339
288.287
288.235
288.182
288.128
288.074
288.02
287.965
287.911
287.857
287.804
287.752
287.702
287.652
287.604
287.558
287.513
287.471
287.43
287.392
287.356
287.322
287.291
287.264
287.239
287.217
287.199
287.184
287.172
287.163
287.159
287.158
287.159
287.164
287.171
287.181
287.195
287.211
287.23
287.252
287.276
287.303
287.333
287.365
287.399
287.435
287.473
287.512
287.553
287.595
287.639
287.684
287.73
287.777
287.825
287.873
287.923
287.972
288.022
288.072
288.123
288.173
288.224
288.274
288.325
288.375
288.426
288.476
288.526
288.576
288.625
288.673
288.72
288.767
288.812
288.856
288.899
288.941
288.982
289.021
289.059
289.095
289.13
289.162
289.193
289.222
289.248
289.273
289.295
289.314
289.33
289.344
289.355
289.364
289.37
289.374
289.374
289.373
289.37
289.363
289.354
289.342
289.327
289.309
289.288
289.265
289.239
289.21
289.179
289.146
289.11
289.071
289.03
288.987
288.942
288.894
288.844
288.792
288.738
288.682
288.624
288.564
288.503
288.44
288.376
288.311
288.245
288.179
288.113
288.047
287.981
287.917
287.853
287.791
287.731
287.673
287.617
287.564
287.514
287.466
287.422
287.381
287.344
287.31
287.279
287.252
287.229
287.209
287.193
287.18
287.171
287.164
287.159
287.156
287.156
287.157
287.161
287.167
287.176
287.186
287.199
287.213
287.23
287.248
287.268
287.289
287.312
287.336
287.362
287.389
287.418
287.448
287.479
287.512
287.546
287.581
287.617
287.655
287.693
287.733
287.774
287.817
287.86
287.905
287.95
287.997
288.045
288.094
288.144
288.196
288.248
288.302
288.356
288.412
288.468
288.526
288.584
288.643
288.703
288.764
288.825
288.887
288.95
289.013
289.077
289.142
289.207
289.273
289.339
289.405
289.472
289.54
289.607
289.675
289.743
289.811
289.88
289.948
290.017
290.086
290.154
290.223
290.291
290.359
290.427
290.494
290.561
290.628
290.694
290.76
290.825
290.889
290.953
291.016
291.079
291.141
291.202
291.262
291.321
291.379
291.437
291.493
291.549
291.603
291.657
291.709
291.76
291.81
291.859
291.907
291.954
291.999
292.043
292.086
292.128
292.169
292.208
292.247
292.284
292.32
292.355
292.389
292.422
292.454
292.485
292.515
292.544
292.572
292.6
292.627
292.653
292.678
292.703
292.727
292.751
292.774
292.797
292.819
292.841
292.862
292.883
292.903
292.923
292.943
292.962
292.981
292.999
293.017
293.035
293.052
293.069
293.085
293.101
293.116
293.131
293.145
293.159
293.172
293.185
293.197
293.209
293.22
293.23
293.24
293.25
293.259
293.268
293.276
293.284
293.291
293.298
293.304
293.31
293.316
293.322
293.327
293.332
293.337
293.341
293.346
293.35
293.354
293.359
293.363
293.367
293.371
293.375
293.379
293.383
293.388
293.392
293.396
293.4
293.404
293.408
293.412
293.416
293.42
293.424
293.428
293.432
293.436
293.439
293.443
293.446
293.45
293.453
293.456
293.459
293.462
293.464
293.467
293.469
293.472
293.474
293.476
293.478
293.479
293.481
293.482
293.483
293.484
293.485
293.486
293.486
293.487
293.487
293.486
293.486
293.485
293.485
293.483
293.482
293.481
293.479
293.477
293.475
293.472
293.47
293.467
293.464
293.46
293.457
293.453
293.449
293.445
293.441
293.436
293.431
293.427
293.422
293.416
293.411
293.405
293.4
293.394
293.388
293.381
293.375
293.368
293.362
293.355
293.348
293.34
287.321
287.316
287.313
287.298
287.274
287.234
287.17
287.077
286.961
286.85
286.737
286.595
286.463
286.328
285.98
285.266
284.523
284.005
283.674
283.442
283.268
283.149
283.079
283.036
283.017
283.001
283.017
283.083
283.18
283.303
283.442
283.579
283.705
283.81
283.875
283.894
283.871
283.81
283.758
283.703
283.632
283.562
283.502
283.435
283.362
283.288
283.216
283.146
283.081
283.017
282.962
282.929
282.917
282.918
282.93
282.95
282.977
283.004
283.031
283.061
283.097
283.141
283.198
283.269
283.361
283.48
283.633
283.831
284.087
284.412
284.803
285.248
285.733
286.244
286.765
287.272
287.728
288.104
288.386
288.577
288.698
288.76
288.782
288.785
288.775
288.751
288.719
288.683
288.645
288.605
288.563
288.52
288.475
288.429
288.381
288.332
288.281
288.23
288.178
288.125
288.072
288.018
287.964
287.91
287.857
287.803
287.75
287.698
287.648
287.598
287.55
287.504
287.459
287.416
287.376
287.338
287.302
287.268
287.238
287.21
287.186
287.164
287.146
287.131
287.119
287.11
287.105
287.104
287.106
287.11
287.117
287.128
287.142
287.158
287.176
287.198
287.223
287.25
287.279
287.311
287.345
287.381
287.419
287.459
287.5
287.542
287.586
287.631
287.677
287.724
287.772
287.82
287.869
287.919
287.969
288.019
288.07
288.12
288.171
288.221
288.272
288.322
288.372
288.422
288.471
288.52
288.569
288.617
288.664
288.71
288.755
288.8
288.842
288.884
288.924
288.963
289.001
289.037
289.071
289.103
289.133
289.162
289.188
289.212
289.233
289.252
289.268
289.281
289.292
289.299
289.305
289.308
289.309
289.307
289.303
289.296
289.286
289.274
289.259
289.241
289.22
289.196
289.17
289.142
289.111
289.077
289.041
289.003
288.962
288.919
288.874
288.826
288.776
288.724
288.67
288.614
288.556
288.496
288.434
288.371
288.307
288.241
288.175
288.109
288.043
287.976
287.911
287.846
287.783
287.721
287.661
287.603
287.547
287.494
287.444
287.397
287.352
287.311
287.274
287.24
287.209
287.182
287.159
287.139
287.122
287.11
287.1
287.093
287.088
287.085
287.085
287.086
287.09
287.096
287.105
287.115
287.128
287.143
287.159
287.177
287.197
287.219
287.242
287.266
287.292
287.319
287.348
287.378
287.409
287.442
287.475
287.51
287.547
287.584
287.623
287.662
287.703
287.745
287.789
287.833
287.879
287.925
287.973
288.022
288.072
288.123
288.176
288.229
288.283
288.339
288.395
288.452
288.51
288.569
288.629
288.69
288.751
288.813
288.876
288.939
289.003
289.067
289.132
289.198
289.264
289.33
289.396
289.463
289.531
289.598
289.666
289.734
289.802
289.87
289.938
290.006
290.074
290.143
290.21
290.278
290.346
290.413
290.48
290.546
290.612
290.678
290.743
290.807
290.871
290.934
290.996
291.057
291.118
291.178
291.237
291.295
291.352
291.408
291.463
291.518
291.571
291.623
291.674
291.724
291.772
291.82
291.866
291.911
291.956
291.998
292.04
292.081
292.12
292.158
292.196
292.232
292.267
292.301
292.334
292.366
292.396
292.427
292.456
292.484
292.512
292.538
292.564
292.59
292.615
292.639
292.662
292.685
292.708
292.73
292.752
292.773
292.794
292.815
292.835
292.855
292.874
292.893
292.912
292.93
292.948
292.965
292.982
292.998
293.014
293.03
293.045
293.059
293.073
293.087
293.1
293.112
293.124
293.135
293.146
293.156
293.166
293.175
293.184
293.192
293.2
293.207
293.214
293.22
293.226
293.232
293.237
293.242
293.247
293.251
293.256
293.26
293.264
293.268
293.272
293.276
293.279
293.283
293.287
293.291
293.294
293.298
293.302
293.306
293.31
293.314
293.317
293.321
293.325
293.329
293.332
293.336
293.34
293.343
293.347
293.35
293.353
293.356
293.359
293.362
293.364
293.367
293.369
293.372
293.374
293.376
293.377
293.379
293.38
293.382
293.383
293.384
293.385
293.386
293.386
293.387
293.387
293.387
293.387
293.387
293.386
293.386
293.385
293.384
293.382
293.381
293.379
293.377
293.375
293.372
293.37
293.367
293.364
293.36
293.357
293.353
293.349
293.345
293.341
293.336
293.331
293.327
293.322
293.316
293.311
293.306
293.3
293.294
293.288
293.282
293.276
293.27
293.263
293.257
293.25
293.242
287.333
287.325
287.315
287.291
287.242
287.162
287.048
286.886
286.707
286.558
286.406
286.205
286.01
285.811
285.379
284.63
283.934
283.505
283.288
283.193
283.162
283.174
283.188
283.259
283.372
283.516
283.711
283.917
284.132
284.341
284.534
284.694
284.816
284.908
284.968
284.989
284.986
284.93
284.873
284.808
284.692
284.572
284.456
284.345
284.215
284.072
283.921
283.766
283.613
283.463
283.329
283.221
283.141
283.08
283.038
283.011
282.998
282.999
283.009
283.025
283.045
283.069
283.097
283.131
283.172
283.224
283.289
283.377
283.5
283.666
283.887
284.175
284.544
285.001
285.539
286.132
286.735
287.292
287.759
288.12
288.377
288.544
288.646
288.689
288.7
288.696
288.678
288.648
288.611
288.572
288.53
288.487
288.442
288.396
288.349
288.3
288.249
288.198
288.146
288.094
288.041
287.987
287.934
287.88
287.827
287.774
287.721
287.67
287.619
287.569
287.521
287.475
287.43
287.387
287.347
287.309
287.273
287.24
287.21
287.182
287.158
287.136
287.118
287.103
287.091
287.082
287.077
287.077
287.078
287.082
287.09
287.101
287.114
287.13
287.148
287.17
287.195
287.222
287.251
287.283
287.318
287.354
287.392
287.431
287.472
287.515
287.559
287.604
287.65
287.697
287.745
287.794
287.843
287.893
287.943
287.993
288.043
288.094
288.144
288.195
288.245
288.295
288.345
288.395
288.444
288.493
288.541
288.589
288.636
288.682
288.727
288.771
288.814
288.856
288.896
288.935
288.972
289.007
289.041
289.073
289.103
289.131
289.157
289.181
289.202
289.221
289.237
289.25
289.26
289.267
289.273
289.275
289.275
289.273
289.269
289.261
289.252
289.239
289.224
289.206
289.185
289.161
289.135
289.107
289.075
289.042
289.006
288.968
288.927
288.884
288.839
288.791
288.741
288.689
288.635
288.579
288.521
288.461
288.399
288.336
288.271
288.206
288.139
288.073
288.006
287.94
287.874
287.809
287.746
287.683
287.623
287.565
287.51
287.457
287.407
287.36
287.316
287.275
287.238
287.204
287.173
287.146
287.123
287.103
287.086
287.073
287.064
287.057
287.052
287.049
287.049
287.05
287.054
287.06
287.069
287.079
287.092
287.107
287.124
287.142
287.162
287.184
287.207
287.232
287.258
287.285
287.314
287.344
287.375
287.408
287.442
287.477
287.513
287.551
287.589
287.629
287.67
287.712
287.755
287.8
287.845
287.892
287.94
287.988
288.038
288.089
288.142
288.195
288.249
288.304
288.36
288.417
288.475
288.534
288.594
288.654
288.715
288.777
288.84
288.903
288.967
289.031
289.096
289.161
289.227
289.293
289.359
289.426
289.493
289.56
289.627
289.695
289.763
289.83
289.898
289.966
290.034
290.102
290.169
290.237
290.304
290.371
290.437
290.503
290.569
290.634
290.699
290.763
290.827
290.889
290.952
291.013
291.073
291.133
291.192
291.25
291.306
291.362
291.417
291.471
291.524
291.576
291.627
291.677
291.725
291.772
291.819
291.864
291.908
291.951
291.992
292.033
292.072
292.11
292.148
292.184
292.219
292.253
292.286
292.318
292.349
292.379
292.408
292.437
292.464
292.491
292.517
292.543
292.567
292.592
292.615
292.639
292.661
292.683
292.705
292.727
292.748
292.768
292.789
292.808
292.828
292.847
292.866
292.884
292.902
292.92
292.937
292.953
292.97
292.985
293
293.015
293.029
293.043
293.056
293.068
293.08
293.092
293.103
293.113
293.123
293.132
293.141
293.149
293.157
293.164
293.171
293.177
293.183
293.188
293.194
293.199
293.203
293.208
293.212
293.216
293.22
293.224
293.227
293.231
293.234
293.238
293.241
293.245
293.248
293.252
293.255
293.259
293.263
293.266
293.27
293.273
293.277
293.28
293.284
293.287
293.29
293.294
293.297
293.3
293.303
293.306
293.309
293.311
293.314
293.316
293.318
293.32
293.322
293.324
293.325
293.326
293.328
293.329
293.33
293.331
293.331
293.332
293.332
293.333
293.333
293.333
293.332
293.332
293.331
293.331
293.33
293.328
293.327
293.325
293.324
293.322
293.319
293.317
293.314
293.312
293.308
293.305
293.302
293.298
293.294
293.29
293.286
293.281
293.277
293.272
293.267
293.262
293.257
293.252
293.246
293.241
293.235
293.229
293.223
293.217
293.21
293.204
293.198
293.19
287.34
287.33
287.315
287.273
287.192
287.061
286.876
286.631
286.367
286.163
285.967
285.714
285.453
285.184
284.724
284.071
283.548
283.292
283.225
283.224
283.287
283.42
283.614
283.872
284.141
284.43
284.693
284.93
285.117
285.268
285.402
285.483
285.534
285.564
285.589
285.595
285.592
285.572
285.549
285.535
285.444
285.33
285.225
285.107
284.964
284.789
284.586
284.365
284.135
283.906
283.693
283.509
283.362
283.247
283.161
283.1
283.06
283.037
283.03
283.033
283.04
283.052
283.069
283.091
283.116
283.145
283.178
283.22
283.275
283.35
283.454
283.606
283.828
284.146
284.576
285.11
285.715
286.34
286.93
287.443
287.859
288.171
288.389
288.529
288.604
288.629
288.63
288.619
288.591
288.554
288.514
288.471
288.426
288.38
288.332
288.284
288.234
288.183
288.132
288.08
288.027
287.973
287.92
287.867
287.814
287.761
287.709
287.657
287.607
287.557
287.509
287.463
287.418
287.376
287.335
287.297
287.261
287.228
287.198
287.171
287.146
287.125
287.107
287.092
287.08
287.071
287.066
287.065
287.067
287.071
287.079
287.089
287.103
287.118
287.137
287.158
287.183
287.21
287.24
287.271
287.305
287.342
287.379
287.419
287.46
287.503
287.547
287.592
287.638
287.686
287.734
287.782
287.832
287.881
287.931
287.982
288.032
288.083
288.133
288.184
288.234
288.284
288.334
288.383
288.433
288.481
288.53
288.577
288.624
288.67
288.715
288.759
288.802
288.843
288.883
288.922
288.959
288.995
289.028
289.06
289.09
289.118
289.143
289.167
289.188
289.206
289.222
289.235
289.245
289.253
289.258
289.261
289.26
289.258
289.253
289.246
289.236
289.223
289.208
289.19
289.169
289.145
289.119
289.091
289.06
289.026
288.99
288.952
288.911
288.868
288.823
288.776
288.726
288.674
288.619
288.563
288.505
288.445
288.383
288.319
288.255
288.189
288.123
288.056
287.989
287.923
287.857
287.792
287.728
287.666
287.606
287.548
287.492
287.439
287.389
287.342
287.298
287.258
287.22
287.187
287.156
287.129
287.106
287.086
287.069
287.057
287.048
287.041
287.036
287.033
287.033
287.034
287.038
287.044
287.053
287.064
287.077
287.092
287.108
287.127
287.147
287.169
287.193
287.218
287.244
287.272
287.301
287.331
287.363
287.395
287.429
287.465
287.501
287.539
287.577
287.617
287.658
287.7
287.744
287.788
287.834
287.88
287.928
287.977
288.027
288.078
288.13
288.183
288.237
288.292
288.348
288.405
288.463
288.522
288.581
288.642
288.703
288.765
288.827
288.89
288.953
289.018
289.082
289.147
289.213
289.278
289.344
289.411
289.478
289.544
289.612
289.679
289.746
289.814
289.881
289.949
290.016
290.084
290.151
290.218
290.285
290.351
290.418
290.484
290.549
290.614
290.678
290.742
290.806
290.868
290.93
290.991
291.051
291.111
291.169
291.227
291.284
291.339
291.394
291.448
291.501
291.552
291.603
291.653
291.701
291.748
291.795
291.84
291.884
291.926
291.968
292.008
292.048
292.086
292.123
292.16
292.195
292.229
292.262
292.294
292.325
292.355
292.385
292.413
292.441
292.468
292.494
292.52
292.545
292.569
292.593
292.617
292.64
292.662
292.684
292.705
292.727
292.747
292.768
292.788
292.807
292.827
292.846
292.864
292.882
292.9
292.917
292.934
292.951
292.966
292.982
292.997
293.011
293.025
293.038
293.05
293.062
293.074
293.085
293.095
293.105
293.114
293.123
293.131
293.139
293.146
293.153
293.16
293.166
293.171
293.176
293.181
293.186
293.19
293.194
293.198
293.202
293.206
293.209
293.213
293.216
293.219
293.223
293.226
293.229
293.233
293.236
293.239
293.243
293.246
293.249
293.253
293.256
293.259
293.262
293.266
293.269
293.272
293.275
293.278
293.281
293.283
293.286
293.288
293.291
293.293
293.295
293.296
293.298
293.299
293.301
293.302
293.303
293.304
293.305
293.305
293.306
293.306
293.306
293.307
293.307
293.306
293.306
293.306
293.305
293.304
293.303
293.302
293.3
293.299
293.297
293.295
293.293
293.29
293.288
293.285
293.282
293.279
293.276
293.272
293.268
293.264
293.26
293.256
293.251
293.247
293.242
293.237
293.232
293.227
293.222
293.217
293.211
293.205
293.2
293.194
293.188
293.182
293.175
293.169
287.356
287.338
287.314
287.248
287.122
286.929
286.673
286.351
286.006
285.724
285.472
285.173
284.856
284.539
284.124
283.661
283.367
283.282
283.278
283.41
283.631
283.931
284.285
284.652
284.988
285.272
285.496
285.643
285.731
285.772
285.777
285.78
285.783
285.761
285.761
285.76
285.767
285.771
285.779
285.792
285.761
285.721
285.655
285.567
285.448
285.288
285.084
284.84
284.57
284.286
284.007
283.753
283.531
283.354
283.219
283.126
283.067
283.033
283.019
283.016
283.02
283.029
283.044
283.064
283.086
283.11
283.135
283.163
283.193
283.229
283.277
283.351
283.466
283.646
283.92
284.304
284.793
285.362
285.968
286.565
287.114
287.584
287.959
288.234
288.416
288.526
288.567
288.575
288.568
288.543
288.506
288.465
288.42
288.374
288.327
288.278
288.228
288.178
288.127
288.075
288.022
287.969
287.916
287.863
287.81
287.758
287.706
287.654
287.604
287.555
287.507
287.46
287.416
287.373
287.333
287.294
287.259
287.226
287.196
287.168
287.144
287.123
287.104
287.089
287.077
287.069
287.064
287.063
287.065
287.069
287.077
287.087
287.1
287.116
287.134
287.156
287.18
287.207
287.236
287.268
287.302
287.338
287.376
287.416
287.457
287.499
287.543
287.588
287.635
287.682
287.73
287.779
287.828
287.878
287.928
287.978
288.029
288.08
288.13
288.181
288.231
288.281
288.331
288.38
288.429
288.478
288.526
288.573
288.62
288.666
288.711
288.755
288.797
288.839
288.879
288.917
288.954
288.99
289.023
289.055
289.085
289.113
289.138
289.162
289.183
289.201
289.217
289.23
289.24
289.248
289.253
289.255
289.255
289.252
289.247
289.24
289.23
289.217