/*--------------------------------*- C++ -*----------------------------------*\
| =========                 |                                                 |
| \\      /  F ield         | OpenFOAM: The Open Source CFD Toolbox           |
|  \\    /   O peration     | Version:  v1812                                 |
|   \\  /    A nd           | Web:      www.OpenFOAM.com                      |
|    \\/     M anipulation  |                                                 |
\*---------------------------------------------------------------------------*/
FoamFile
{
    version     2.0;
    format      ascii;
    class       volVectorField;
    location    "0.2";
    object      U;
}
// * * * * * * * * * * * * * * * * * * * * * * * * * * * * * * * * * * * * * //

dimensions      [0 1 -1 0 0 0 0];


internalField   nonuniform List<vector> 
20400
(
(0.0251493 -0.0440682 0)
(0.134362 -0.0651381 0)
(0.301646 -0.0835178 0)
(0.518015 -0.0669016 0)
(0.742386 -0.0545375 0)
(0.971501 -0.0407116 0)
(1.15602 0.0110623 0)
(1.28599 0.0394234 0)
(1.36079 0.0224492 0)
(1.34273 -0.0961771 0)
(1.30194 -0.154618 0)
(1.3136 0.0152368 0)
(1.18741 0.159408 0)
(0.921819 0.303762 0)
(0.56624 0.310827 0)
(0.297355 0.191494 0)
(0.133227 0.116925 0)
(-0.0132367 0.127334 0)
(-0.208065 0.190136 0)
(-0.524812 0.297649 0)
(-1.00933 0.40081 0)
(-1.65604 0.470151 0)
(-2.43803 0.505505 0)
(-3.32297 0.507775 0)
(-4.30001 0.47858 0)
(-5.34845 0.39554 0)
(-6.4273 0.293031 0)
(-7.52419 0.215155 0)
(-8.58926 0.183654 0)
(-9.56168 0.220714 0)
(-10.3909 0.296053 0)
(-11.0371 0.351207 0)
(-11.5183 0.26796 0)
(-11.8681 0.126921 0)
(-12.0624 -0.0352493 0)
(-12.2082 -0.0905016 0)
(-12.3391 -0.157427 0)
(-12.459 -0.208325 0)
(-12.5236 -0.260504 0)
(-12.5034 -0.29182 0)
(-12.3839 -0.326966 0)
(-12.1627 -0.317177 0)
(-11.8111 -0.324531 0)
(-11.3344 -0.39163 0)
(-10.755 -0.41391 0)
(-10.0985 -0.380787 0)
(-9.41259 -0.202678 0)
(-8.83992 0.238749 0)
(-8.48037 0.802029 0)
(-7.82033 0.72793 0)
(-6.98012 0.666121 0)
(-6.08436 0.467406 0)
(-5.1126 0.204723 0)
(-4.07894 -0.0460785 0)
(-3.03421 -0.2687 0)
(-2.02386 -0.47414 0)
(-1.0883 -0.640063 0)
(-0.230686 -0.504292 0)
(0.555309 -0.274768 0)
(1.30688 -0.156964 0)
(1.99177 -0.166019 0)
(2.59663 -0.163154 0)
(3.13486 -0.0559388 0)
(3.62378 0.108841 0)
(4.05046 0.270128 0)
(4.38812 0.386357 0)
(4.65761 0.427772 0)
(4.89178 0.397769 0)
(5.10239 0.292951 0)
(5.24663 0.111691 0)
(5.33277 -0.0642514 0)
(5.32983 -0.162525 0)
(5.27723 -0.20758 0)
(5.21014 -0.223299 0)
(5.13621 -0.226211 0)
(5.05194 -0.24324 0)
(4.95195 -0.260833 0)
(4.83646 -0.260152 0)
(4.71518 -0.242929 0)
(4.59414 -0.21897 0)
(4.47634 -0.195958 0)
(4.36377 -0.173543 0)
(4.2562 -0.151918 0)
(4.15345 -0.131131 0)
(4.05543 -0.110874 0)
(3.96141 -0.0937072 0)
(3.86939 -0.0807909 0)
(3.77647 -0.0698047 0)
(3.6806 -0.0597603 0)
(3.58107 -0.0503813 0)
(3.4776 -0.0418063 0)
(3.37001 -0.0341905 0)
(3.25841 -0.0271314 0)
(3.14288 -0.0216703 0)
(3.02341 -0.017273 0)
(2.90028 -0.0137963 0)
(2.77407 -0.0106943 0)
(2.6452 -0.00862378 0)
(2.51386 -0.00817199 0)
(2.38001 -0.0078265 0)
(2.24335 -0.00786229 0)
(2.10335 -0.00814925 0)
(1.95966 -0.00847918 0)
(1.81202 -0.00878407 0)
(1.66038 -0.00912071 0)
(1.50491 -0.00949174 0)
(1.34594 -0.00994701 0)
(1.18385 -0.0104067 0)
(1.01902 -0.0108024 0)
(0.85188 -0.0111106 0)
(0.682971 -0.0114096 0)
(0.512962 -0.0117271 0)
(0.342633 -0.0120748 0)
(0.172811 -0.0123654 0)
(0.00448396 -0.0123301 0)
(-0.16146 -0.0118612 0)
(-0.324155 -0.0112472 0)
(-0.482894 -0.0104701 0)
(-0.637017 -0.00948347 0)
(-0.785962 -0.00831551 0)
(-0.92902 -0.00719031 0)
(-1.06554 -0.00583248 0)
(-1.19514 -0.00418996 0)
(-1.31763 -0.00233978 0)
(-1.43292 -0.00036415 0)
(-1.5402 0.00164688 0)
(-1.63751 0.00385413 0)
(-1.72414 0.00606012 0)
(-1.80253 0.00855662 0)
(-1.87445 0.0111959 0)
(-1.93731 0.0138812 0)
(-1.99064 0.0165347 0)
(-2.03428 0.0192848 0)
(-2.06798 0.0219084 0)
(-2.09163 0.0253877 0)
(-2.10578 0.0291216 0)
(-2.10908 0.03231 0)
(-2.10255 0.0350054 0)
(-2.08639 0.0380794 0)
(-2.06052 0.0414982 0)
(-2.02539 0.0451324 0)
(-1.98157 0.048932 0)
(-1.92958 0.0528562 0)
(-1.86987 0.0568408 0)
(-1.80269 0.0607805 0)
(-1.72834 0.0648284 0)
(-1.64722 0.0686981 0)
(-1.55945 0.0722515 0)
(-1.46506 0.0754304 0)
(-1.36407 0.0781865 0)
(-1.2565 0.0804826 0)
(-1.14236 0.0823229 0)
(-1.02173 0.0837699 0)
(-0.89482 0.0849242 0)
(-0.761984 0.0859015 0)
(-0.623728 0.0868059 0)
(-0.480645 0.087698 0)
(-0.333334 0.0885667 0)
(-0.182398 0.0892812 0)
(-0.0283204 0.089379 0)
(0.127987 0.0887363 0)
(0.28574 0.0877289 0)
(0.444325 0.0862312 0)
(0.603165 0.0840303 0)
(0.761763 0.0807923 0)
(0.919728 0.0762212 0)
(1.07672 0.070217 0)
(1.23241 0.0628724 0)
(1.38656 0.0545646 0)
(1.53889 0.0461204 0)
(1.68907 0.0365123 0)
(1.83673 0.0251793 0)
(1.98152 0.0125733 0)
(2.12298 -0.000252871 0)
(2.26053 -0.012606 0)
(2.39365 -0.0238552 0)
(2.52186 -0.0338575 0)
(2.64475 -0.0429682 0)
(2.76193 -0.0510531 0)
(2.87295 -0.0586769 0)
(2.97734 -0.0654817 0)
(3.07467 -0.070695 0)
(3.16449 -0.0740865 0)
(3.24622 -0.0759741 0)
(3.31903 -0.0762615 0)
(3.3819 -0.0747954 0)
(3.43411 -0.0713276 0)
(3.47568 -0.0652025 0)
(3.50737 -0.0589491 0)
(3.52991 -0.0559373 0)
(3.54043 -0.0539566 0)
(3.54168 -0.0495118 0)
(3.53288 -0.044917 0)
(3.51518 -0.040161 0)
(3.48892 -0.0349489 0)
(3.45138 -0.0296757 0)
(3.40338 -0.0238463 0)
(3.34495 -0.0197851 0)
(3.27624 -0.0173698 0)
(3.19729 -0.0148423 0)
(3.10826 -0.0134914 0)
(3.00947 -0.0127922 0)
(2.90125 -0.0125802 0)
(2.78387 -0.0128119 0)
(2.65759 -0.0134103 0)
(2.52262 -0.0142879 0)
(2.37918 -0.0153452 0)
(2.22744 -0.016468 0)
(2.06756 -0.0175517 0)
(1.89967 -0.0185395 0)
(1.7239 -0.0193023 0)
(1.54044 -0.0198794 0)
(1.34954 -0.0202415 0)
(1.15144 -0.0203287 0)
(0.946462 -0.0200814 0)
(0.734932 -0.0194364 0)
(0.517203 -0.0184134 0)
(0.293683 -0.0170844 0)
(0.0648922 -0.0154174 0)
(-0.168513 -0.0133926 0)
(-0.405712 -0.0112064 0)
(-0.645934 -0.00882756 0)
(-0.88834 -0.00624074 0)
(-1.13202 -0.0034827 0)
(-1.37588 -0.000706281 0)
(-1.61883 0.00226992 0)
(-1.85988 0.00550106 0)
(-2.09798 0.0089146 0)
(-2.33213 0.0125443 0)
(-2.56135 0.0163665 0)
(-2.78474 0.0203159 0)
(-3.00139 0.0243715 0)
(-3.21052 0.0285137 0)
(-3.41151 0.0328939 0)
(-3.6039 0.0373908 0)
(-3.78719 0.0419547 0)
(-3.96101 0.0465817 0)
(-4.12508 0.0512628 0)
(-4.27918 0.0559812 0)
(-4.42303 0.0606808 0)
(-4.55619 0.0652988 0)
(-4.67816 0.0697579 0)
(-4.78853 0.0739818 0)
(-4.88725 0.0778299 0)
(-4.97481 0.0812904 0)
(-5.05212 0.0844289 0)
(-5.12044 0.0876399 0)
(-5.18079 0.0905662 0)
(-5.23327 0.0933127 0)
(-5.27889 0.0965659 0)
(-5.31785 0.0993745 0)
(-5.35063 0.102083 0)
(-5.37699 0.104655 0)
(-5.39609 0.107043 0)
(-5.4086 0.109396 0)
(-5.41497 0.111743 0)
(-5.41528 0.113559 0)
(-5.41067 0.115179 0)
(-5.4011 0.116785 0)
(-5.38676 0.118302 0)
(-5.36803 0.11966 0)
(-5.34526 0.120846 0)
(-5.31872 0.121861 0)
(-5.28865 0.122715 0)
(-5.25527 0.123417 0)
(-5.21878 0.123973 0)
(-5.17934 0.124393 0)
(-5.13713 0.124682 0)
(-5.09229 0.124844 0)
(-5.04494 0.124881 0)
(-4.9952 0.124791 0)
(-4.94316 0.124573 0)
(-4.8889 0.12423 0)
(-4.83247 0.123764 0)
(-4.77392 0.123187 0)
(-4.71331 0.122509 0)
(-4.65066 0.121739 0)
(-4.58603 0.120889 0)
(-4.51944 0.119969 0)
(-4.45093 0.118982 0)
(-4.38055 0.117933 0)
(-4.30834 0.116827 0)
(-4.23434 0.115662 0)
(-4.15859 0.114439 0)
(-4.08113 0.11316 0)
(-4.002 0.111825 0)
(-3.92121 0.110432 0)
(-3.83879 0.108981 0)
(-3.75474 0.107477 0)
(-3.66909 0.105956 0)
(-3.58186 0.104404 0)
(-3.49311 0.102807 0)
(-3.40285 0.10116 0)
(-3.31114 0.0994634 0)
(-3.21802 0.0977283 0)
(-3.12351 0.0959765 0)
(-3.02768 0.0942245 0)
(-2.93057 0.0924879 0)
(-2.83224 0.0907838 0)
(-2.73276 0.0891156 0)
(-2.63218 0.087479 0)
(-2.53056 0.0858758 0)
(-2.42796 0.0843118 0)
(-2.32441 0.0827874 0)
(-2.21997 0.0812965 0)
(-2.11467 0.0798322 0)
(-2.00858 0.0784343 0)
(-1.90177 0.0770958 0)
(-1.79431 0.0758024 0)
(-1.68625 0.0745433 0)
(-1.57763 0.0733181 0)
(-1.46852 0.0721262 0)
(-1.35895 0.07097 0)
(-1.24899 0.0698562 0)
(-1.13867 0.0687575 0)
(-1.02799 0.0676345 0)
(-0.916937 0.0665579 0)
(-0.805611 0.0655921 0)
(-0.694087 0.0646862 0)
(-0.582402 0.0638349 0)
(-0.470601 0.0630429 0)
(-0.358735 0.0623107 0)
(-0.246857 0.0616183 0)
(-0.135027 0.0609376 0)
(-0.0232875 0.0602338 0)
(0.0882335 0.059527 0)
(0.199518 0.0588621 0)
(0.310518 0.0582456 0)
(0.42118 0.057674 0)
(0.531443 0.0571424 0)
(0.641253 0.0566428 0)
(0.750564 0.0561726 0)
(0.859333 0.0557341 0)
(0.967515 0.0553262 0)
(1.07507 0.0549419 0)
(1.18197 0.0545769 0)
(1.28819 0.0542295 0)
(1.39371 0.053895 0)
(1.4985 0.0535772 0)
(1.60254 0.0532677 0)
(1.70583 0.0529688 0)
(1.80833 0.0526794 0)
(1.91003 0.0523894 0)
(2.01093 0.0520998 0)
(2.111 0.0518146 0)
(2.21025 0.0515223 0)
(2.30866 0.0512071 0)
(2.40627 0.0508717 0)
(2.50309 0.0505277 0)
(2.59912 0.05018 0)
(2.69439 0.0498256 0)
(2.7889 0.0494619 0)
(2.88268 0.0490857 0)
(2.97574 0.0487024 0)
(3.06812 0.0483123 0)
(3.15982 0.0479126 0)
(3.25088 0.0475046 0)
(3.34131 0.0470853 0)
(3.43115 0.0466534 0)
(3.5204 0.0462076 0)
(3.60908 0.045745 0)
(3.69719 0.045268 0)
(3.78473 0.0447709 0)
(3.87171 0.0442582 0)
(3.95813 0.0437069 0)
(4.044 0.0431126 0)
(4.12936 0.0424629 0)
(4.21422 0.0417509 0)
(4.2986 0.0409936 0)
(4.38248 0.0402093 0)
(4.46584 0.0394071 0)
(4.5486 0.0385872 0)
(4.63071 0.037727 0)
(4.71213 0.0368346 0)
(4.79277 0.0358917 0)
(4.87258 0.0349111 0)
(4.95148 0.0338916 0)
(5.02941 0.0328377 0)
(5.10627 0.0317521 0)
(5.18199 0.0306469 0)
(5.25645 0.0295077 0)
(5.32958 0.0283469 0)
(5.40125 0.0271759 0)
(5.47136 0.0259951 0)
(5.53979 0.0248165 0)
(5.60643 0.023639 0)
(5.67117 0.0224567 0)
(5.73391 0.0212659 0)
(5.79456 0.0200728 0)
(5.85304 0.0189233 0)
(5.90923 0.017786 0)
(5.96306 0.0166663 0)
(6.01445 0.015568 0)
(6.06334 0.0144973 0)
(6.10966 0.0134586 0)
(6.15335 0.0124584 0)
(6.19439 0.0115072 0)
(6.23278 0.0105956 0)
(6.26857 0.00971396 0)
(6.30175 0.00884727 0)
(6.33228 0.00797559 0)
(6.36014 0.00710313 0)
(6.38536 0.00619152 0)
(6.40804 0.00531883 0)
(6.42827 0.00421907 0)
(6.44618 0.00353696 0)
(6.46188 0.00275043 0)
(6.47541 0.00197722 0)
(6.48682 0.00124927 0)
(6.4962 0.000557098 0)
(6.50363 -0.000165427 0)
(6.50922 -0.000894545 0)
(6.51306 -0.00144744 0)
(6.51527 -0.00220779 0)
(6.51613 -0.00310742 0)
(6.51578 -0.00379326 0)
(6.51409 -0.00433771 0)
(6.51135 -0.00498958 0)
(6.50754 -0.0056272 0)
(6.50284 -0.00628238 0)
(6.49734 -0.00692327 0)
(6.49112 -0.00756538 0)
(6.48427 -0.00810008 0)
(6.47689 -0.00878601 0)
(6.46904 -0.00942324 0)
(6.46081 -0.0101494 0)
(6.45224 -0.0106963 0)
(6.44342 -0.0112698 0)
(6.43443 -0.0118622 0)
(6.42532 -0.0124378 0)
(6.41616 -0.0131291 0)
(6.40694 -0.0136227 0)
(6.39771 -0.0141461 0)
(6.38849 -0.0146948 0)
(6.37931 -0.0152392 0)
(6.37019 -0.0157776 0)
(6.36114 -0.0163075 0)
(6.3522 -0.0168305 0)
(6.34338 -0.0173448 0)
(6.33471 -0.0178492 0)
(6.32621 -0.0183382 0)
(6.3179 -0.0188112 0)
(6.30979 -0.0192599 0)
(6.30188 -0.019689 0)
(6.29417 -0.0200911 0)
(6.28665 -0.0204671 0)
(6.27933 -0.0208125 0)
(6.27217 -0.0211302 0)
(6.26518 -0.0214231 0)
(6.25834 -0.0216873 0)
(6.25165 -0.0219335 0)
(6.2451 -0.0221529 0)
(6.23869 -0.0223432 0)
(6.23241 -0.0225133 0)
(6.22626 -0.0226474 0)
(6.22023 -0.0227509 0)
(6.21434 -0.0228245 0)
(6.20858 -0.0228646 0)
(6.20298 -0.0228729 0)
(6.19741 -0.0228524 0)
(6.1918 -0.0227859 0)
(6.18642 -0.0227173 0)
(6.18115 -0.0225087 0)
(6.176 -0.0223981 0)
(6.17097 -0.0222392 0)
(6.16605 -0.0220233 0)
(6.16125 -0.021765 0)
(6.15657 -0.0214808 0)
(6.15203 -0.0211478 0)
(6.14763 -0.0208147 0)
(6.14339 -0.0203574 0)
(6.13933 -0.0199735 0)
(6.13545 -0.0195596 0)
(6.13177 -0.0191002 0)
(6.12828 -0.0186062 0)
(6.12501 -0.0180891 0)
(6.12196 -0.0175627 0)
(6.11915 -0.0169423 0)
(6.11659 -0.0163373 0)
(6.11427 -0.0157268 0)
(6.11222 -0.0150843 0)
(6.11041 -0.0144914 0)
(6.10889 -0.0138358 0)
(6.10763 -0.0131711 0)
(6.10665 -0.012468 0)
(6.10593 -0.0117682 0)
(6.10548 -0.0110454 0)
(6.10527 -0.0103132 0)
(6.1053 -0.00958701 0)
(6.10561 -0.00881542 0)
(6.10619 -0.00805887 0)
(6.1071 -0.00732131 0)
(6.10832 -0.00657662 0)
(6.10977 -0.00581513 0)
(6.11149 -0.0050991 0)
(6.11337 -0.00435403 0)
(6.11542 -0.00351201 0)
(6.11739 -0.00214094 0)
(6.11822 -0.00062671 0)
(6.1192 -6.13997e-05 0)
(0.0906164 -0.237529 0)
(0.365022 -0.304357 0)
(0.635738 -0.371901 0)
(0.914847 -0.372048 0)
(1.15978 -0.368381 0)
(1.36027 -0.321905 0)
(1.47657 -0.240924 0)
(1.5814 -0.178984 0)
(1.62552 -0.064513 0)
(1.57896 0.0500829 0)
(1.36006 0.119237 0)
(1.03353 0.119817 0)
(0.682282 0.295531 0)
(0.141953 0.496158 0)
(-0.572056 0.520888 0)
(-1.35461 0.385522 0)
(-2.19574 0.310878 0)
(-3.1255 0.363384 0)
(-4.18709 0.500992 0)
(-5.40862 0.71785 0)
(-6.80365 0.961309 0)
(-8.35764 1.16672 0)
(-10.0198 1.3202 0)
(-11.7088 1.43688 0)
(-13.3464 1.56935 0)
(-14.8709 1.66922 0)
(-16.2444 1.72176 0)
(-17.4764 1.69954 0)
(-18.5661 1.55145 0)
(-19.5047 1.3082 0)
(-20.283 0.989679 0)
(-20.8952 0.67354 0)
(-21.3153 0.500531 0)
(-21.4586 0.372856 0)
(-21.3848 0.276659 0)
(-21.0736 0.276389 0)
(-20.5856 0.29242 0)
(-20.0092 0.259448 0)
(-19.403 0.171555 0)
(-18.7505 0.081258 0)
(-18.0787 -0.0488803 0)
(-17.407 -0.193613 0)
(-16.7101 -0.36508 0)
(-15.9611 -0.488105 0)
(-15.1722 -0.590193 0)
(-14.332 -0.666564 0)
(-13.421 -0.652537 0)
(-12.4442 -0.563245 0)
(-11.3192 -0.602322 0)
(-10.1082 -1.15695 0)
(-8.71237 -1.33589 0)
(-7.32571 -1.4498 0)
(-5.95223 -1.57573 0)
(-4.59522 -1.6312 0)
(-3.2688 -1.62987 0)
(-1.96334 -1.5727 0)
(-0.663547 -1.44993 0)
(0.699602 -1.37586 0)
(2.14375 -1.2781 0)
(3.58947 -1.10571 0)
(4.93117 -0.887035 0)
(6.1456 -0.726769 0)
(7.23677 -0.706431 0)
(8.17198 -0.73704 0)
(8.94066 -0.705135 0)
(9.56587 -0.630798 0)
(10.0955 -0.5727 0)
(10.5631 -0.515793 0)
(10.9634 -0.39774 0)
(11.2525 -0.190935 0)
(11.3935 0.046598 0)
(11.4348 0.194759 0)
(11.3821 0.274577 0)
(11.2824 0.300414 0)
(11.161 0.313183 0)
(11.0124 0.342995 0)
(10.8323 0.381364 0)
(10.6225 0.397429 0)
(10.4014 0.386064 0)
(10.1821 0.360851 0)
(9.96919 0.329442 0)
(9.76365 0.296781 0)
(9.56516 0.263849 0)
(9.37442 0.23037 0)
(9.19252 0.196716 0)
(9.01976 0.166306 0)
(8.85439 0.144107 0)
(8.69366 0.12813 0)
(8.53507 0.114474 0)
(8.37732 0.101239 0)
(8.21988 0.0883726 0)
(8.0625 0.0762473 0)
(7.90514 0.0640431 0)
(7.74772 0.0531932 0)
(7.59024 0.0432428 0)
(7.43277 0.0331697 0)
(7.2754 0.0222556 0)
(7.11816 0.0116258 0)
(6.96082 0.00248266 0)
(6.80327 -0.00594815 0)
(6.64525 -0.0126411 0)
(6.48631 -0.0178504 0)
(6.32597 -0.0215296 0)
(6.16389 -0.0240124 0)
(5.99994 -0.0256903 0)
(5.83422 -0.0268696 0)
(5.66696 -0.0276319 0)
(5.4984 -0.0280019 0)
(5.32881 -0.027994 0)
(5.15851 -0.0277143 0)
(4.98795 -0.0272264 0)
(4.81765 -0.0267174 0)
(4.64831 -0.0263347 0)
(4.48084 -0.0262144 0)
(4.31623 -0.0262288 0)
(4.15543 -0.0262209 0)
(3.99923 -0.0259515 0)
(3.84851 -0.0254863 0)
(3.70395 -0.0246724 0)
(3.56602 -0.023523 0)
(3.43529 -0.0223154 0)
(3.31242 -0.0209567 0)
(3.19794 -0.0193316 0)
(3.09203 -0.0174152 0)
(2.99455 -0.0149192 0)
(2.90586 -0.0121354 0)
(2.82785 -0.00994698 0)
(2.76308 -0.00769105 0)
(2.70637 -0.00486534 0)
(2.65626 -0.00165873 0)
(2.6162 0.00163419 0)
(2.58614 0.00513746 0)
(2.56588 0.00824457 0)
(2.55612 0.0120445 0)
(2.5548 0.0159622 0)
(2.56451 0.0209013 0)
(2.58385 0.0263183 0)
(2.61347 0.0301926 0)
(2.6519 0.034552 0)
(2.69901 0.0394999 0)
(2.75443 0.0449134 0)
(2.81771 0.0507015 0)
(2.88839 0.0567707 0)
(2.96612 0.0630399 0)
(3.0507 0.0693803 0)
(3.14204 0.0753117 0)
(3.23988 0.0808066 0)
(3.34398 0.085908 0)
(3.45428 0.0905021 0)
(3.57077 0.0945087 0)
(3.69354 0.0978541 0)
(3.82268 0.100519 0)
(3.95828 0.102578 0)
(4.10029 0.104153 0)
(4.24847 0.105404 0)
(4.40241 0.106494 0)
(4.5615 0.107577 0)
(4.72502 0.108788 0)
(4.89209 0.110322 0)
(5.06172 0.112499 0)
(5.23306 0.115327 0)
(5.40528 0.118579 0)
(5.57741 0.122335 0)
(5.74858 0.126568 0)
(5.91804 0.131313 0)
(6.08518 0.136563 0)
(6.24956 0.142261 0)
(6.41092 0.148223 0)
(6.56923 0.153988 0)
(6.72467 0.158179 0)
(6.87697 0.162355 0)
(7.02517 0.167166 0)
(7.16834 0.17236 0)
(7.30604 0.177131 0)
(7.43816 0.180919 0)
(7.56479 0.183166 0)
(7.68601 0.183789 0)
(7.80165 0.183211 0)
(7.9113 0.181449 0)
(8.01433 0.179159 0)
(8.10992 0.176177 0)
(8.19755 0.171791 0)
(8.27695 0.165739 0)
(8.34766 0.1583 0)
(8.4089 0.149493 0)
(8.45982 0.139436 0)
(8.50002 0.128162 0)
(8.52976 0.115109 0)
(8.55057 0.101518 0)
(8.56104 0.0915902 0)
(8.55838 0.0824303 0)
(8.54442 0.0725596 0)
(8.51998 0.0628127 0)
(8.48571 0.0525861 0)
(8.44381 0.0417341 0)
(8.39064 0.0307857 0)
(8.32754 0.0193239 0)
(8.25439 0.00948112 0)
(8.17084 0.00129937 0)
(8.07699 -0.00663556 0)
(7.97318 -0.0130752 0)
(7.8597 -0.018598 0)
(7.73695 -0.0232712 0)
(7.60528 -0.0270752 0)
(7.46497 -0.0300914 0)
(7.31627 -0.0323818 0)
(7.15945 -0.0340014 0)
(6.99475 -0.0350118 0)
(6.8224 -0.0354704 0)
(6.64266 -0.0353744 0)
(6.45576 -0.0347822 0)
(6.26197 -0.033677 0)
(6.06161 -0.0321678 0)
(5.85502 -0.0303167 0)
(5.64258 -0.0282264 0)
(5.42469 -0.0261384 0)
(5.20187 -0.0241693 0)
(4.97472 -0.0221751 0)
(4.74389 -0.0200885 0)
(4.51009 -0.017927 0)
(4.27403 -0.015606 0)
(4.03658 -0.0130999 0)
(3.79868 -0.0104032 0)
(3.56131 -0.0074971 0)
(3.32556 -0.00448945 0)
(3.09256 -0.00129815 0)
(2.86348 0.00225909 0)
(2.6394 0.00607056 0)
(2.42129 0.0102609 0)
(2.21014 0.0148844 0)
(2.00687 0.0198541 0)
(1.8123 0.0252217 0)
(1.62713 0.0310205 0)
(1.45186 0.0365618 0)
(1.28715 0.0421056 0)
(1.13357 0.047602 0)
(0.991377 0.0532116 0)
(0.860721 0.0589192 0)
(0.741664 0.064684 0)
(0.63433 0.0704283 0)
(0.538994 0.0760951 0)
(0.456047 0.0815931 0)
(0.385814 0.0868008 0)
(0.328366 0.0915452 0)
(0.283262 0.0957917 0)
(0.249858 0.0996907 0)
(0.226868 0.102816 0)
(0.2132 0.106727 0)
(0.208892 0.110328 0)
(0.210992 0.113608 0)
(0.222716 0.116907 0)
(0.241042 0.11991 0)
(0.266511 0.122893 0)
(0.300378 0.125633 0)
(0.341867 0.12824 0)
(0.390406 0.130782 0)
(0.44548 0.133105 0)
(0.506435 0.134857 0)
(0.572836 0.136567 0)
(0.644438 0.138181 0)
(0.720905 0.139612 0)
(0.801887 0.140833 0)
(0.88705 0.14184 0)
(0.976097 0.14264 0)
(1.06876 0.143243 0)
(1.16479 0.143656 0)
(1.26398 0.143887 0)
(1.36613 0.143945 0)
(1.47106 0.143834 0)
(1.57862 0.143557 0)
(1.68867 0.143112 0)
(1.80111 0.1425 0)
(1.91583 0.141726 0)
(2.03276 0.140796 0)
(2.15184 0.139728 0)
(2.27302 0.138539 0)
(2.39623 0.137244 0)
(2.52143 0.135861 0)
(2.64856 0.134402 0)
(2.77756 0.132875 0)
(2.90836 0.131284 0)
(3.0409 0.129634 0)
(3.17513 0.127923 0)
(3.31097 0.126151 0)
(3.44839 0.12432 0)
(3.58735 0.122431 0)
(3.72782 0.120482 0)
(3.86977 0.118475 0)
(4.01321 0.116351 0)
(4.15811 0.114122 0)
(4.30443 0.111817 0)
(4.45216 0.10946 0)
(4.60127 0.107088 0)
(4.75172 0.104739 0)
(4.90349 0.102433 0)
(5.05653 0.100195 0)
(5.21078 0.0980341 0)
(5.36616 0.0959577 0)
(5.5226 0.0939789 0)
(5.68001 0.0921002 0)
(5.83829 0.0903152 0)
(5.99734 0.0886227 0)
(6.15706 0.0870277 0)
(6.31733 0.0855298 0)
(6.47806 0.0841235 0)
(6.63913 0.0828109 0)
(6.80044 0.0814949 0)
(6.96191 0.0801728 0)
(7.12351 0.0789308 0)
(7.28512 0.077752 0)
(7.44667 0.0766276 0)
(7.60809 0.0755531 0)
(7.76933 0.0745269 0)
(7.9304 0.0735018 0)
(8.09127 0.0723636 0)
(8.25183 0.0713783 0)
(8.412 0.0707469 0)
(8.57176 0.0701652 0)
(8.7311 0.0696305 0)
(8.88995 0.0691485 0)
(9.04822 0.0687442 0)
(9.20579 0.068438 0)
(9.36256 0.0682298 0)
(9.51846 0.0681061 0)
(9.67342 0.0680568 0)
(9.82741 0.0680565 0)
(9.98037 0.0681117 0)
(10.1322 0.0682502 0)
(10.2829 0.0684717 0)
(10.4324 0.0687699 0)
(10.5805 0.0691351 0)
(10.7273 0.0695607 0)
(10.8728 0.070048 0)
(11.0167 0.070595 0)
(11.1591 0.0711933 0)
(11.3 0.0718345 0)
(11.4394 0.0725144 0)
(11.5771 0.0732245 0)
(11.7132 0.0739662 0)
(11.8477 0.0747298 0)
(11.9805 0.0755133 0)
(12.1118 0.0763126 0)
(12.2414 0.077117 0)
(12.3694 0.0779142 0)
(12.4959 0.0787089 0)
(12.6208 0.0794917 0)
(12.7441 0.08024 0)
(12.866 0.0809437 0)
(12.9865 0.0816109 0)
(13.1056 0.08225 0)
(13.2234 0.0828583 0)
(13.3398 0.0834276 0)
(13.455 0.0839557 0)
(13.569 0.0844407 0)
(13.6818 0.0848846 0)
(13.7934 0.0852893 0)
(13.9039 0.0856491 0)
(14.0133 0.0859645 0)
(14.1217 0.0862343 0)
(14.229 0.086458 0)
(14.3353 0.0866333 0)
(14.4406 0.0867624 0)
(14.5448 0.0868372 0)
(14.6482 0.0868577 0)
(14.7505 0.086808 0)
(14.8519 0.0866747 0)
(14.9523 0.0864582 0)
(15.0518 0.0861432 0)
(15.1504 0.085722 0)
(15.2481 0.0852168 0)
(15.3448 0.0846428 0)
(15.4406 0.0840071 0)
(15.5355 0.0832872 0)
(15.6292 0.0824737 0)
(15.7219 0.0815833 0)
(15.8133 0.0805977 0)
(15.9035 0.0795076 0)
(15.9923 0.0783055 0)
(16.0796 0.0769984 0)
(16.1654 0.075583 0)
(16.2497 0.0740655 0)
(16.3322 0.0724432 0)
(16.4128 0.0707251 0)
(16.4916 0.0689037 0)
(16.5683 0.0669972 0)
(16.6428 0.0649781 0)
(16.7151 0.0628746 0)
(16.785 0.0606905 0)
(16.8524 0.0583436 0)
(16.9172 0.0559283 0)
(16.9795 0.0534646 0)
(17.039 0.0509148 0)
(17.0957 0.0482796 0)
(17.1496 0.0455583 0)
(17.2006 0.0427456 0)
(17.2487 0.0398333 0)
(17.2938 0.0368378 0)
(17.3359 0.0338087 0)
(17.3752 0.0307772 0)
(17.4116 0.0277607 0)
(17.445 0.0247677 0)
(17.4756 0.0217938 0)
(17.5032 0.0188852 0)
(17.5281 0.0159899 0)
(17.5505 0.0134647 0)
(17.5704 0.0104256 0)
(17.5879 0.00744293 0)
(17.6029 0.00449535 0)
(17.6157 0.00149642 0)
(17.6263 -0.00148422 0)
(17.6348 -0.00433803 0)
(17.6414 -0.00708013 0)
(17.6462 -0.00973946 0)
(17.6496 -0.0121173 0)
(17.6511 -0.0151382 0)
(17.6511 -0.0177229 0)
(17.6497 -0.0200117 0)
(17.6473 -0.0222933 0)
(17.6438 -0.0245447 0)
(17.6394 -0.0267707 0)
(17.6341 -0.0289356 0)
(17.628 -0.0310059 0)
(17.6213 -0.0330806 0)
(17.6139 -0.034975 0)
(17.606 -0.0368034 0)
(17.5976 -0.038468 0)
(17.5889 -0.0401693 0)
(17.5799 -0.0418227 0)
(17.5707 -0.043402 0)
(17.5612 -0.044931 0)
(17.5516 -0.0462723 0)
(17.542 -0.0476381 0)
(17.5323 -0.0489216 0)
(17.5225 -0.0501132 0)
(17.5128 -0.0512191 0)
(17.5031 -0.0522335 0)
(17.4934 -0.0531623 0)
(17.4837 -0.0540149 0)
(17.4742 -0.0547953 0)
(17.4648 -0.055508 0)
(17.4555 -0.0561513 0)
(17.4464 -0.0567132 0)
(17.4375 -0.0571928 0)
(17.4288 -0.0575823 0)
(17.4202 -0.0578891 0)
(17.4118 -0.0581119 0)
(17.4036 -0.0582454 0)
(17.3955 -0.0582871 0)
(17.3875 -0.0582383 0)
(17.3797 -0.0581156 0)
(17.372 -0.0579175 0)
(17.3644 -0.0576575 0)
(17.357 -0.0573344 0)
(17.3496 -0.0569394 0)
(17.3424 -0.0564829 0)
(17.3353 -0.0559591 0)
(17.3283 -0.0553643 0)
(17.3215 -0.0547018 0)
(17.3148 -0.0539765 0)
(17.3081 -0.0531844 0)
(17.3014 -0.0523425 0)
(17.295 -0.0514172 0)
(17.2886 -0.0505422 0)
(17.2824 -0.0495226 0)
(17.2763 -0.048433 0)
(17.2702 -0.0473004 0)
(17.2643 -0.046133 0)
(17.2585 -0.0449228 0)
(17.2528 -0.0436853 0)
(17.2473 -0.0423846 0)
(17.2419 -0.0411399 0)
(17.2366 -0.0397944 0)
(17.2316 -0.0384125 0)
(17.2267 -0.0370169 0)
(17.222 -0.0356211 0)
(17.2174 -0.0342131 0)
(17.2132 -0.0327833 0)
(17.2091 -0.0314114 0)
(17.2053 -0.0299949 0)
(17.2017 -0.0285842 0)
(17.1984 -0.0271764 0)
(17.1953 -0.0257186 0)
(17.1924 -0.0243076 0)
(17.1898 -0.0228944 0)
(17.1874 -0.0215372 0)
(17.1854 -0.0201842 0)
(17.1835 -0.0188585 0)
(17.1819 -0.017543 0)
(17.1806 -0.0162539 0)
(17.1795 -0.0150077 0)
(17.1786 -0.0137666 0)
(17.1781 -0.0125379 0)
(17.1779 -0.0113689 0)
(17.1778 -0.0102351 0)
(17.178 -0.00911539 0)
(17.1784 -0.00787363 0)
(17.1784 -0.0066692 0)
(17.1794 -0.00502513 0)
(17.1802 -0.00256191 0)
(17.1823 -0.00118467 0)
(0.0525554 -0.536896 0)
(0.395704 -0.6662 0)
(0.681506 -0.739091 0)
(0.93876 -0.720192 0)
(1.15138 -0.682347 0)
(1.30408 -0.563774 0)
(1.38982 -0.442289 0)
(1.51929 -0.372647 0)
(1.57391 -0.111455 0)
(1.46725 0.223282 0)
(1.17409 0.518852 0)
(0.718565 0.684471 0)
(0.170807 1.11214 0)
(-0.710225 1.63654 0)
(-2.01152 1.88544 0)
(-3.54514 1.81485 0)
(-5.18122 1.77399 0)
(-6.88599 1.91658 0)
(-8.66516 2.18826 0)
(-10.5097 2.54629 0)
(-12.3782 2.90349 0)
(-14.2017 3.18745 0)
(-15.9249 3.31497 0)
(-17.5081 3.25624 0)
(-18.9374 3.08125 0)
(-20.1889 2.82065 0)
(-21.2207 2.56226 0)
(-21.9894 2.34196 0)
(-22.5014 2.09709 0)
(-22.7741 1.82768 0)
(-22.8501 1.50622 0)
(-22.6875 1.17617 0)
(-22.6091 0.717051 0)
(-22.4449 0.317428 0)
(-22.244 -0.0350638 0)
(-21.9115 -0.352215 0)
(-21.3933 -0.556043 0)
(-20.7781 -0.666241 0)
(-20.1307 -0.804158 0)
(-19.4129 -0.982155 0)
(-18.6321 -1.10419 0)
(-17.87 -1.22363 0)
(-17.1254 -1.42653 0)
(-16.3399 -1.61798 0)
(-15.5096 -1.77848 0)
(-14.6368 -1.93324 0)
(-13.6769 -2.05224 0)
(-12.5352 -2.17722 0)
(-11.1332 -2.40033 0)
(-9.67771 -2.99664 0)
(-8.15405 -3.12157 0)
(-6.70736 -3.11265 0)
(-5.31343 -3.15572 0)
(-3.95181 -3.1452 0)
(-2.6046 -3.1117 0)
(-1.24084 -3.0663 0)
(0.181771 -3.02998 0)
(1.65694 -3.08644 0)
(3.15931 -3.10708 0)
(4.708 -2.99111 0)
(6.32331 -2.72352 0)
(7.9541 -2.3519 0)
(9.46252 -1.94824 0)
(10.7425 -1.53214 0)
(11.8187 -1.17052 0)
(12.7368 -0.894407 0)
(13.5279 -0.742704 0)
(14.1988 -0.653042 0)
(14.7538 -0.52889 0)
(15.1951 -0.344085 0)
(15.5306 -0.138509 0)
(15.7777 0.0203694 0)
(15.916 0.122088 0)
(15.9881 0.176734 0)
(16.0069 0.217649 0)
(15.9891 0.262608 0)
(15.941 0.311903 0)
(15.8447 0.342657 0)
(15.7054 0.344598 0)
(15.5296 0.331302 0)
(15.3279 0.313153 0)
(15.1157 0.294865 0)
(14.9018 0.276398 0)
(14.6936 0.255517 0)
(14.4961 0.232488 0)
(14.3116 0.208055 0)
(14.1387 0.186398 0)
(13.9727 0.170125 0)
(13.8094 0.15747 0)
(13.647 0.146113 0)
(13.485 0.135189 0)
(13.3235 0.124066 0)
(13.1627 0.112988 0)
(13.0029 0.100932 0)
(12.8432 0.088144 0)
(12.6832 0.0743701 0)
(12.5229 0.0609672 0)
(12.3624 0.0477632 0)
(12.2017 0.0345726 0)
(12.0408 0.0222045 0)
(11.8795 0.0110548 0)
(11.7179 0.00187663 0)
(11.5557 -0.00585735 0)
(11.3928 -0.0120322 0)
(11.2294 -0.0172645 0)
(11.0657 -0.0217885 0)
(10.9021 -0.025736 0)
(10.7389 -0.0290295 0)
(10.5762 -0.0316212 0)
(10.4142 -0.0335872 0)
(10.2529 -0.0350951 0)
(10.0924 -0.0363173 0)
(9.9332 -0.0374306 0)
(9.77588 -0.0385193 0)
(9.62127 -0.0397609 0)
(9.47026 -0.0410151 0)
(9.32379 -0.042152 0)
(9.18286 -0.0430032 0)
(9.04829 -0.043143 0)
(8.92061 -0.0426049 0)
(8.80021 -0.041907 0)
(8.6877 -0.0407384 0)
(8.5837 -0.0388159 0)
(8.48849 -0.0363429 0)
(8.40192 -0.0332463 0)
(8.324 -0.0296043 0)
(8.25664 -0.0254737 0)
(8.20257 -0.0208375 0)
(8.15689 -0.0157347 0)
(8.11773 -0.0101053 0)
(8.08851 -0.00404646 0)
(8.06904 0.00167897 0)
(8.05961 0.0085462 0)
(8.06083 0.0171081 0)
(8.07203 0.0255083 0)
(8.09269 0.033497 0)
(8.1238 0.0421458 0)
(8.16491 0.0513439 0)
(8.21564 0.0610103 0)
(8.2757 0.0711586 0)
(8.34472 0.0818175 0)
(8.42232 0.0928998 0)
(8.50807 0.104243 0)
(8.60154 0.115663 0)
(8.70226 0.12692 0)
(8.80979 0.13756 0)
(8.92386 0.147678 0)
(9.04439 0.157028 0)
(9.17123 0.165439 0)
(9.30421 0.172692 0)
(9.44312 0.178635 0)
(9.58775 0.183258 0)
(9.73791 0.186707 0)
(9.89332 0.189294 0)
(10.0537 0.191352 0)
(10.2186 0.193201 0)
(10.3876 0.195054 0)
(10.5603 0.197039 0)
(10.7361 0.19919 0)
(10.9147 0.201613 0)
(11.0954 0.204396 0)
(11.2776 0.207463 0)
(11.4603 0.210566 0)
(11.6426 0.213388 0)
(11.8238 0.215412 0)
(12.0031 0.216196 0)
(12.1803 0.215437 0)
(12.355 0.212935 0)
(12.5268 0.208337 0)
(12.6951 0.201925 0)
(12.8594 0.19571 0)
(13.0201 0.189213 0)
(13.1771 0.182119 0)
(13.3304 0.174419 0)
(13.4795 0.166234 0)
(13.6237 0.157663 0)
(13.7624 0.148849 0)
(13.8951 0.140013 0)
(14.0212 0.131308 0)
(14.1405 0.122873 0)
(14.2527 0.114784 0)
(14.3574 0.106865 0)
(14.4541 0.0990421 0)
(14.5422 0.0914118 0)
(14.621 0.0840233 0)
(14.6895 0.0769426 0)
(14.7468 0.0702427 0)
(14.7925 0.0637396 0)
(14.8272 0.0579685 0)
(14.8515 0.0517494 0)
(14.8654 0.0463888 0)
(14.8685 0.0429008 0)
(14.861 0.0379925 0)
(14.8433 0.0320499 0)
(14.8154 0.025732 0)
(14.7755 0.0192572 0)
(14.7246 0.0128627 0)
(14.663 0.00678005 0)
(14.5912 0.00113535 0)
(14.5095 -0.00410702 0)
(14.4181 -0.00957051 0)
(14.3172 -0.0147026 0)
(14.2073 -0.0194201 0)
(14.0886 -0.0237701 0)
(13.9614 -0.0277382 0)
(13.826 -0.0313184 0)
(13.6827 -0.0344877 0)
(13.5316 -0.0372337 0)
(13.3731 -0.0395505 0)
(13.2074 -0.0414256 0)
(13.0347 -0.0428271 0)
(12.8554 -0.0437417 0)
(12.6698 -0.0441165 0)
(12.478 -0.0439321 0)
(12.2806 -0.0431835 0)
(12.0776 -0.0418173 0)
(11.8697 -0.0398316 0)
(11.6573 -0.0373674 0)
(11.4409 -0.034556 0)
(11.2212 -0.0314549 0)
(10.999 -0.0280781 0)
(10.7752 -0.0243153 0)
(10.5506 -0.0200994 0)
(10.3264 -0.01558 0)
(10.1036 -0.0109859 0)
(9.88334 -0.00616078 0)
(9.6669 -0.00122134 0)
(9.45544 0.00411061 0)
(9.25011 0.00967452 0)
(9.05195 0.0154462 0)
(8.86198 0.0216409 0)
(8.68106 0.0282146 0)
(8.50987 0.0352901 0)
(8.34923 0.0431976 0)
(8.19945 0.0508178 0)
(8.06092 0.0590123 0)
(7.93411 0.0675657 0)
(7.81914 0.0765467 0)
(7.71593 0.0858628 0)
(7.62445 0.0953199 0)
(7.54484 0.10477 0)
(7.47738 0.113987 0)
(7.42246 0.122907 0)
(7.38016 0.131384 0)
(7.34995 0.138933 0)
(7.33077 0.144552 0)
(7.32289 0.149638 0)
(7.32438 0.155455 0)
(7.33449 0.161566 0)
(7.35226 0.166648 0)
(7.379 0.171508 0)
(7.41227 0.176453 0)
(7.4525 0.181138 0)
(7.50127 0.185607 0)
(7.55776 0.189873 0)
(7.62133 0.193825 0)
(7.69143 0.19742 0)
(7.76752 0.200709 0)
(7.8492 0.203751 0)
(7.93614 0.206553 0)
(8.028 0.209083 0)
(8.12441 0.211311 0)
(8.22506 0.213231 0)
(8.32964 0.21485 0)
(8.43786 0.216177 0)
(8.54947 0.217221 0)
(8.66422 0.217989 0)
(8.78187 0.218487 0)
(8.9022 0.218718 0)
(9.02503 0.218677 0)
(9.15018 0.218356 0)
(9.27754 0.217745 0)
(9.407 0.216847 0)
(9.5385 0.215667 0)
(9.67202 0.214225 0)
(9.80752 0.212547 0)
(9.945 0.210667 0)
(10.0844 0.208608 0)
(10.2257 0.206397 0)
(10.3689 0.204051 0)
(10.5139 0.201575 0)
(10.6605 0.198982 0)
(10.8088 0.196265 0)
(10.9586 0.193421 0)
(11.1099 0.190445 0)
(11.2626 0.187333 0)
(11.4167 0.184074 0)
(11.572 0.180662 0)
(11.7286 0.177093 0)
(11.8865 0.173325 0)
(12.0455 0.169376 0)
(12.2057 0.165267 0)
(12.3671 0.161048 0)
(12.5296 0.156765 0)
(12.6932 0.152452 0)
(12.8578 0.148155 0)
(13.0235 0.143901 0)
(13.1901 0.139715 0)
(13.3577 0.135637 0)
(13.5262 0.13169 0)
(13.6956 0.127883 0)
(13.8657 0.124235 0)
(14.0365 0.120769 0)
(14.2079 0.117496 0)
(14.3797 0.114413 0)
(14.552 0.11152 0)
(14.7246 0.108722 0)
(14.8973 0.105929 0)
(15.0699 0.10331 0)
(15.2424 0.100848 0)
(15.4146 0.0985208 0)
(15.5864 0.0963071 0)
(15.7577 0.0941688 0)
(15.9285 0.0923001 0)
(16.0988 0.0908279 0)