/*--------------------------------*- C++ -*----------------------------------*\
| =========                 |                                                 |
| \\      /  F ield         | OpenFOAM: The Open Source CFD Toolbox           |
|  \\    /   O peration     | Version:  v1812                                 |
|   \\  /    A nd           | Web:      www.OpenFOAM.com                      |
|    \\/     M anipulation  |                                                 |
\*---------------------------------------------------------------------------*/
FoamFile
{
    version     2.0;
    format      ascii;
    class       surfaceScalarField;
    location    "0.3";
    object      phi;
}
// * * * * * * * * * * * * * * * * * * * * * * * * * * * * * * * * * * * * * //

dimensions      [1 0 -1 0 0 0 0];
oriented        oriented;


internalField   nonuniform List<scalar> 
128384
(
0.00262501
7.04731e-19
0.00262501
-6.50521e-19
0.00262501
2.27682e-18
0.00262501
2.71051e-19
0.00262501
8.13152e-19
0.00262501
2.27682e-18
0.00262501
1.84314e-18
0.00262501
9.75782e-19
0.00262501
1.78893e-18
0.00262501
0
0.00262501
-2.1684e-19
0.00262501
-8.67362e-19
0.00262501
5.96311e-19
0.00262501
-2.1684e-18
0.00262501
5.42101e-20
0.00262501
2.38524e-18
0.00262501
2.49366e-18
0.00262501
4.87891e-19
0.00262501
4.33681e-19
0.00262501
0
0.00262501
-8.13152e-19
0.00262501
-2.00577e-18
0.00262501
1.73472e-18
0.00262501
-1.35525e-18
0.00262501
1.0842e-19
0.00262501
-6.50521e-19
0.00262501
-5.42101e-20
0.00262501
-3.25261e-19
0.00262501
-2.00577e-18
0.00262501
-1.30104e-18
0.00262501
-3.25261e-19
0.00262501
-5.96311e-19
0.00262501
1.02999e-18
0.00262501
1.19262e-18
0.00262501
1.73472e-18
0.00262501
-2.71051e-18
0.00262501
7.04731e-19
0.00262501
-9.75782e-19
0.00262501
-4.87891e-19
0.00262501
-1.24683e-18
0.00262501
2.1684e-19
0.00262501
2.1684e-19
0.00262501
5.42101e-20
0.00262501
-4.33681e-19
0.00262501
9.75782e-19
0.00262501
8.13152e-19
0.00262501
-4.33681e-19
0.00262501
-5.96311e-19
0.00262501
-3.95734e-18
0.00262501
1.6263e-19
0.00262501
1.68051e-18
0.00262501
4.01155e-18
0.00262501
7.04731e-19
0.00262501
9.21572e-19
0.00262501
1.0842e-18
0.00262501
1.84314e-18
0.00262501
-9.21572e-19
0.00262501
4.33681e-19
0.00262501
9.21572e-19
0.00262501
-2.1684e-19
0.00262501
1.4962e-17
0.00262501
1.90006e-15
0.00262501
2.07445e-13
0.00262501
2.17028e-11
0.00262489
1.9774e-09
0.00261554
1.91368e-07
0.00231553
1.62571e-05
0.00209059
5.45235e-05
0.00200927
8.12658e-05
0.00184768
9.39612e-05
0.00165606
7.5091e-05
0.00150225
6.74903e-05
0.0014125
6.5567e-05
0.00137015
6.524e-05
0.00136686
7.18472e-05
0.00135967
7.82969e-05
0.00131117
8.30314e-05
0.00121651
8.55651e-05
0.00109771
8.45865e-05
0.000974541
8.11279e-05
0.000869351
7.77571e-05
0.000783597
7.51075e-05
0.000717335
7.53363e-05
0.000657004
7.54918e-05
0.000593629
7.21679e-05
0.000530504
6.47313e-05
0.000471904
5.66118e-05
0.000416454
5.26558e-05
0.00036408
5.24617e-05
0.000312312
5.33803e-05
0.000260479
5.39266e-05
0.000207313
5.42827e-05
0.000153542
5.43416e-05
0.000100077
5.49894e-05
4.98237e-05
5.4437e-05
5.81725e-05
0.00262501
2.1684e-19
0.00262501
6.50521e-19
0.00262501
-1.46367e-18
0.00262501
1.6263e-19
0.00262501
-8.13152e-19
0.00262501
-3.25261e-19
0.00262501
-5.42101e-19
0.00262501
-2.05998e-18
0.00262501
-1.0842e-19
0.00262501
3.79471e-19
0.00262501
3.79471e-19
0.00262501
1.0842e-19
0.00262501
-1.6263e-19
0.00262501
2.81893e-18
0.00262501
7.58942e-19
0.00262501
-1.6263e-18
0.00262501
-1.0842e-19
0.00262501
-5.42101e-20
0.00262501
4.33681e-19
0.00262501
-7.04731e-19
0.00262501
-1.46367e-18
0.00262501
-4.33681e-19
0.00262501
-8.13152e-19
0.00262501
8.13152e-19
0.00262501
9.75782e-19
0.00262501
-1.0842e-19
0.00262501
-1.68051e-18
0.00262501
-2.22261e-18
0.00262501
6.50521e-19
0.00262501
1.40946e-18
0.00262501
-2.1684e-19
0.00262501
3.79471e-19
0.00262501
-1.6263e-18
0.00262501
-1.0842e-19
0.00262501
5.42101e-19
0.00262501
2.49366e-18
0.00262501
-3.25261e-19
0.00262501
8.13152e-19
0.00262501
-1.57209e-18
0.00262501
-1.73472e-18
0.00262501
-1.35525e-18
0.00262501
-2.81893e-18
0.00262501
-2.71051e-18
0.00262501
-2.33103e-18
0.00262501
-1.24683e-18
0.00262501
-3.79471e-19
0.00262501
1.02999e-18
0.00262501
-1.51788e-18
0.00262501
5.42101e-19
0.00262501
-4.33681e-19
0.00262501
3.25261e-19
0.00262501
1.19262e-18
0.00262501
2.81893e-18
0.00262501
9.75782e-19
0.00262501
1.19262e-18
0.00262501
-1.40946e-18
0.00262501
1.46367e-18
0.00262501
-7.04731e-19
0.00262501
3.25261e-19
0.00262501
6.50521e-19
0.00262501
1.94072e-17
0.00262501
1.52021e-15
0.00262501
1.50464e-13
0.00262501
1.6617e-11
0.00262491
1.24136e-09
0.00261642
1.2131e-07
0.00234066
1.32115e-05
0.00214029
7.91734e-05
0.00206352
0.000147193
0.00190056
0.00018696
0.00170579
0.000153662
0.00155469
0.000139044
0.00146611
0.000132607
0.00142465
0.000133555
0.00142193
0.000143491
0.0014119
0.000156976
0.00136044
0.000165957
0.00126693
0.000168991
0.00114975
0.000167127
0.00102708
0.000163524
0.000918737
0.00015961
0.000826175
0.000157334
0.0007534
0.000157249
0.000688192
0.000155174
0.000622736
0.000145636
0.000559005
0.000129647
0.000499147
0.000114007
0.000442435
0.000106379
0.000388976
0.000105717
0.000336093
0.000107614
0.000283067
0.000109076
0.000228186
0.000110726
0.000171056
0.000112379
0.000112693
0.000115582
5.70829e-05
0.000114337
0.000122256
0.00262501
-2.1684e-19
0.00262501
-6.50521e-19
0.00262501
3.79471e-19
0.00262501
-2.71051e-19
0.00262501
0
0.00262501
-3.79471e-19
0.00262501
-5.42101e-20
0.00262501
3.79471e-19
0.00262501
4.33681e-19
0.00262501
7.04731e-19
0.00262501
2.22261e-18
0.00262501
6.50521e-19
0.00262501
2.11419e-18
0.00262501
9.75782e-19
0.00262501
4.87891e-19
0.00262501
-1.40946e-18
0.00262501
-2.87314e-18
0.00262501
-4.33681e-19
0.00262501
-7.04731e-19
0.00262501
-1.0842e-18
0.00262501
1.6263e-19
0.00262501
-1.89735e-18
0.00262501
-1.30104e-18
0.00262501
-1.6263e-18
0.00262501
-1.68051e-18
0.00262501
-8.13152e-19
0.00262501
4.87891e-19
0.00262501
-1.0842e-18
0.00262501
7.04731e-19
0.00262501
3.79471e-19
0.00262501
1.30104e-18
0.00262501
1.95156e-18
0.00262501
7.58942e-19
0.00262501
-2.6563e-18
0.00262501
-2.54788e-18
0.00262501
-5.96311e-19
0.00262501
-1.46367e-18
0.00262501
-2.71051e-19
0.00262501
1.95156e-18
0.00262501
7.58942e-19
0.00262501
-5.42101e-19
0.00262501
-1.19262e-18
0.00262501
-2.1684e-19
0.00262501
-9.75782e-19
0.00262501
-1.02999e-18
0.00262501
-1.13841e-18
0.00262501
-5.42101e-20
0.00262501
2.71051e-18
0.00262501
1.02999e-18
0.00262501
2.92735e-18
0.00262501
8.67362e-19
0.00262501
8.13152e-19
0.00262501
2.71051e-19
0.00262501
-1.19262e-18
0.00262501
5.96311e-19
0.00262501
1.57209e-18
0.00262501
-8.67362e-19
0.00262501
2.1684e-19
0.00262501
5.42101e-20
0.00262501
3.30682e-18
0.00262501
9.92045e-18
0.00262501
1.05683e-15
0.00262501
8.63383e-14
0.00262501
1.32465e-11
0.00262492
1.08118e-09
0.00261742
1.12718e-07
0.00236855
1.39422e-05
0.00214534
0.000106853
0.00206189
0.000206507
0.00189336
0.000276299
0.00169344
0.00023237
0.0015431
0.00021047
0.00145687
0.00020081
0.00142112
0.000201174
0.00142472
0.000213144
0.00142115
0.0002292
0.00137643
0.00023984
0.00129002
0.000243457
0.00117742
0.000243591
0.00105786
0.000243156
0.00094975
0.000242177
0.000855176
0.000242034
0.00077957
0.000242504
0.000710996
0.000238066
0.000641464
0.000222633
0.000572184
0.000199393
0.000505433
0.000177273
0.000442444
0.000165548
0.000384217
0.000163203
0.000328122
0.000164915
0.000273569
0.000166325
0.000218338
0.00016853
0.000162002
0.000170638
0.000105398
0.000175644
5.21015e-05
0.000173238
0.000177407
0.00262501
-1.35525e-18
0.00262501
-1.6263e-19
0.00262501
1.46367e-18
0.00262501
2.1684e-19
0.00262501
5.42101e-20
0.00262501
-6.50521e-19
0.00262501
7.04731e-19
0.00262501
8.67362e-19
0.00262501
3.25261e-19
0.00262501
-3.25261e-19
0.00262501
3.79471e-19
0.00262501
6.50521e-19
0.00262501
9.21572e-19
0.00262501
3.25261e-19
0.00262501
-6.50521e-19
0.00262501
-3.79471e-19
0.00262501
-2.1684e-19
0.00262501
5.96311e-19
0.00262501
2.38524e-18
0.00262501
6.50521e-19
0.00262501
2.71051e-19
0.00262501
1.84314e-18
0.00262501
1.57209e-18
0.00262501
-4.33681e-19
0.00262501
-3.79471e-19
0.00262501
-1.35525e-18
0.00262501
-7.04731e-19
0.00262501
5.42101e-19
0.00262501
-1.0842e-19
0.00262501
1.73472e-18
0.00262501
-1.0842e-19
0.00262501
-5.96311e-19
0.00262501
1.51788e-18
0.00262501
2.05998e-18
0.00262501
0
0.00262501
-3.14419e-18
0.00262501
2.49366e-18
0.00262501
-1.6263e-19
0.00262501
-7.58942e-19
0.00262501
-7.04731e-19
0.00262501
-1.84314e-18
0.00262501
2.1684e-19
0.00262501
0
0.00262501
2.6563e-18
0.00262501
-1.6263e-19
0.00262501
0
0.00262501
-1.13841e-18
0.00262501
4.87891e-19
0.00262501
1.13841e-18
0.00262501
2.1684e-19
0.00262501
1.02999e-18
0.00262501
1.0842e-19
0.00262501
-5.42101e-20
0.00262501
2.71051e-19
0.00262501
-1.35525e-18
0.00262501
3.25261e-19
0.00262501
5.96311e-19
0.00262501
3.79471e-19
0.00262501
-5.42101e-19
0.00262501
-4.87891e-19
0.00262501
1.22515e-17
0.00262501
9.39353e-16
0.00262501
5.96295e-14
0.00262501
1.00624e-11
0.00262494
1.49061e-09
0.00261883
1.5347e-07
0.00240735
1.4931e-05
0.00214186
0.000151527
0.00202579
0.000282634
0.0018512
0.000362279
0.00165403
0.000308352
0.00151614
0.0002803
0.00143812
0.000267309
0.00141221
0.000268428
0.00141819
0.000283545
0.00141268
0.000300473
0.00136486
0.000311211
0.0012773
0.000315627
0.00116463
0.000317769
0.00104888
0.000319885
0.000945577
0.000322111
0.000855346
0.000324723
0.000781787
0.000326828
0.000713329
0.00032056
0.000642414
0.000300066
0.000571073
0.00027032
0.000502087
0.000241648
0.000438659
0.0002246
0.000381251
0.000219649
0.000326511
0.000221122
0.000273415
0.000223087
0.000219149
0.000226579
0.00016303
0.000229846
0.000107611
0.000235299
5.45172e-05
0.000233201
0.000231887
0.00262501
2.1684e-19
0.00262501
2.1684e-19
0.00262501
-3.79471e-19
0.00262501
-3.25261e-19
0.00262501
-1.02999e-18
0.00262501
4.33681e-19
0.00262501
0
0.00262501
-9.75782e-19
0.00262501
5.96311e-19
0.00262501
2.22261e-18
0.00262501
1.0842e-19
0.00262501
3.7405e-18
0.00262501
2.1684e-19
0.00262501
8.67362e-19
0.00262501
8.67362e-19
0.00262501
-2.1684e-19
0.00262501
1.13841e-18
0.00262501
-1.30104e-18
0.00262501
-2.71051e-19
0.00262501
3.79471e-19
0.00262501
-4.87891e-19
0.00262501
2.71051e-19
0.00262501
-1.0842e-18
0.00262501
1.24683e-18
0.00262501
2.71051e-19
0.00262501
7.04731e-19
0.00262501
1.6263e-19
0.00262501
2.71051e-19
0.00262501
5.96311e-19
0.00262501
-9.75782e-19
0.00262501
1.30104e-18
0.00262501
1.6263e-18
0.00262501
4.33681e-19
0.00262501
-1.24683e-18
0.00262501
1.57209e-18
0.00262501
2.76472e-18
0.00262501
-1.19262e-18
0.00262501
1.68051e-18
0.00262501
-5.96311e-19
0.00262501
-1.35525e-18
0.00262501
8.67362e-19
0.00262501
-8.13152e-19
0.00262501
-9.21572e-19
0.00262501
-2.49366e-18
0.00262501
-1.40946e-18
0.00262501
-2.1684e-18
0.00262501
-1.19262e-18
0.00262501
-1.0842e-18
0.00262501
-1.73472e-18
0.00262501
-6.50521e-19
0.00262501
-5.42101e-20
0.00262501
-2.71051e-19
0.00262501
-7.58942e-19
0.00262501
2.54788e-18
0.00262501
8.67362e-19
0.00262501
3.79471e-19
0.00262501
-1.0842e-19
0.00262501
-4.33681e-19
0.00262501
-1.13841e-18
0.00262501
5.96311e-19
0.00262501
1.79978e-17
0.00262501
1.14882e-15
0.00262501
3.24534e-14
0.00262501
4.02574e-12
0.00262497
3.02939e-10
0.00262077
1.62157e-07
0.00246904
1.78257e-05
0.00214597
0.000201994
0.00200952
0.000358436
0.00183192
0.000441672
0.001643
0.000380574
0.00151796
0.000348053
0.00144524
0.000336477
0.00142949
0.000340661
0.00143322
0.000359275
0.00141578
0.000377011
0.0013567
0.000387858
0.00126305
0.00039112
0.00114557
0.000392401
0.00103344
0.000394693
0.000936328
0.000398704
0.000853157
0.00040363
0.00078508
0.000407313
0.000719466
0.000399679
0.000649721
0.000375416
0.000577949
0.000340608
0.000507099
0.000306498
0.000442614
0.000284306
0.000384891
0.000276471
0.000330512
0.000277814
0.000277984
0.000280652
0.000223864
0.000285423
0.000167506
0.000289788
0.000110728
0.000294287
5.46186e-05
0.000293243
0.00028864
0.00262501
2.71051e-19
0.00262501
0
0.00262501
-2.1684e-19
0.00262501
-4.33681e-19
0.00262501
-1.46367e-18
0.00262501
-5.96311e-19
0.00262501
-4.33681e-19
0.00262501
-2.71051e-19
0.00262501
-3.03577e-18
0.00262501
5.42101e-20
0.00262501
1.13841e-18
0.00262501
1.13841e-18
0.00262501
2.1684e-19
0.00262501
-1.13841e-18
0.00262501
4.87891e-19
0.00262501
-3.79471e-19
0.00262501
-5.42101e-20
0.00262501
1.24683e-18
0.00262501
1.6263e-19
0.00262501
6.50521e-19
0.00262501
5.96311e-19
0.00262501
1.24683e-18
0.00262501
5.96311e-19
0.00262501
-5.42101e-19
0.00262501
-1.95156e-18
0.00262501
-8.13152e-19
0.00262501
-2.1684e-19
0.00262501
-1.46367e-18
0.00262501
3.25261e-19
0.00262501
4.33681e-19
0.00262501
-5.96311e-19
0.00262501
1.6263e-19
0.00262501
1.51788e-18
0.00262501
2.27682e-18
0.00262501
-4.87891e-19
0.00262501
-1.24683e-18
0.00262501
0
0.00262501
-1.24683e-18
0.00262501
2.71051e-19
0.00262501
-6.50521e-19
0.00262501
-1.24683e-18
0.00262501
-3.79471e-19
0.00262501
-4.87891e-19
0.00262501
-7.04731e-19
0.00262501
-1.57209e-18
0.00262501
4.33681e-19
0.00262501
-1.35525e-18
0.00262501
-3.79471e-19
0.00262501
-4.33681e-19
0.00262501
1.02999e-18
0.00262501
-3.79471e-19
0.00262501
-1.6263e-19
0.00262501
1.0842e-18
0.00262501
1.0842e-19
0.00262501
-6.50521e-19
0.00262501
-4.33681e-19
0.00262501
5.42101e-20
0.00262501
7.04731e-19
0.00262501
-1.6263e-19
0.00262501
-4.33681e-19
0.00262501
2.13588e-17
0.00262501
1.48552e-15
0.00262501
6.39542e-14
0.00262501
4.24157e-12
0.002625
-4.41181e-11
0.00262343
-9.3217e-09
0.00252631
3.41544e-06
0.00215669
0.000264221
0.00199597
0.000431125
0.00180632
0.000512931
0.00163129
0.000448506
0.00152522
0.000415527
0.00146453
0.00040586
0.00145848
0.000416136
0.00146036
0.000438157
0.00143132
0.000456497
0.00136024
0.000467643
0.00126055
0.000469582
0.00113821
0.00046888
0.00102819
0.000470077
0.000934945
0.000474634
0.000857228
0.000481127
0.000792827
0.000486034
0.000727432
0.000477475
0.000656254
0.000450754
0.000581889
0.000412456
0.000507382
0.00037366
0.000440794
0.000346147
0.000382378
0.000334602
0.000328614
0.000335175
0.000276793
0.000338656
0.000223232
0.000344015
0.000166818
0.000348891
0.000109072
0.000352031
5.19857e-05
0.000351962
0.000346174
0.00262501
5.42101e-20
0.00262501
9.75782e-19
0.00262501
-8.13152e-19
0.00262501
0
0.00262501
1.84314e-18
0.00262501
4.33681e-19
0.00262501
1.0842e-19
0.00262501
2.1684e-19
0.00262501
5.42101e-19
0.00262501
-8.67362e-19
0.00262501
-1.73472e-18
0.00262501
-2.00577e-18
0.00262501
3.25261e-19
0.00262501
1.0842e-18
0.00262501
-1.6263e-18
0.00262501
-5.96311e-19
0.00262501
5.96311e-19
0.00262501
-5.42101e-19
0.00262501
-2.38524e-18
0.00262501
-2.49366e-18
0.00262501
7.58942e-19
0.00262501
-2.54788e-18
0.00262501
9.75782e-19
0.00262501
9.75782e-19
0.00262501
2.60209e-18
0.00262501
9.75782e-19
0.00262501
-8.67362e-19
0.00262501
-5.96311e-19
0.00262501
-5.96311e-19
0.00262501
0
0.00262501
-6.50521e-19
0.00262501
-1.24683e-18
0.00262501
-7.58942e-19
0.00262501
-9.21572e-19
0.00262501
7.58942e-19
0.00262501
1.13841e-18
0.00262501
1.30104e-18
0.00262501
-1.02999e-18
0.00262501
-3.25261e-19
0.00262501
-3.90313e-18
0.00262501
-2.22261e-18
0.00262501
-3.08998e-18
0.00262501
-8.13152e-19
0.00262501
0
0.00262501
-3.25261e-19
0.00262501
-1.68051e-18
0.00262501
1.02999e-18
0.00262501
-2.1684e-19
0.00262501
-1.24683e-18
0.00262501
3.79471e-19
0.00262501
-1.02999e-18
0.00262501
3.25261e-19
0.00262501
-9.75782e-19
0.00262501
-5.96311e-19
0.00262501
-3.79471e-19
0.00262501
-1.24683e-18
0.00262501
-1.0842e-19
0.00262501
-2.05998e-18
0.00262501
-2.27682e-18
0.00262501
1.19262e-18
0.00262501
2.48824e-17
0.00262501
1.71971e-15
0.00262501
8.91703e-14
0.00262501
6.97201e-12
0.002625
1.95138e-10
0.00262456
2.19145e-08
0.00260176
-9.429e-07
0.00215533
0.000321053
0.00196953
0.000494539
0.00177031
0.000577133
0.00161504
0.000512266
0.00152914
0.000480165
0.00148988
0.000475326
0.00149273
0.000493237
0.00149179
0.000518434
0.00145236
0.000537265
0.00137057
0.000547652
0.00126229
0.000548672
0.0011391
0.000545932
0.00103137
0.000546579
0.000941258
0.000551285
0.000867679
0.000558773
0.000805099
0.000564669
0.000737928
0.000555302
0.000664145
0.000526705
0.000587319
0.000485441
0.000510567
0.000442276
0.000443242
0.000409259
0.000385189
0.000393429
0.000332687
0.000392779
0.000281097
0.000397
0.000226466
0.000402716
0.000168714
0.000407804
0.000109507
0.000410466
5.1492e-05
0.000411529
0.000405813
0.00262501
5.96311e-19
0.00262501
-2.71051e-19
0.00262501
5.42101e-20
0.00262501
5.42101e-19
0.00262501
4.33681e-19
0.00262501
1.30104e-18
0.00262501
2.05998e-18
0.00262501
2.00577e-18
0.00262501
-1.78893e-18
0.00262501
5.42101e-20
0.00262501
-4.87891e-19
0.00262501
-1.0842e-19
0.00262501
-9.21572e-19
0.00262501
-7.58942e-19
0.00262501
4.33681e-19
0.00262501
-1.6263e-19
0.00262501
-1.84314e-18
0.00262501
-7.04731e-19
0.00262501
8.67362e-19
0.00262501
1.0842e-18
0.00262501
2.71051e-19
0.00262501
1.02999e-18
0.00262501
3.25261e-19
0.00262501
4.33681e-19
0.00262501
1.35525e-18
0.00262501
-5.42101e-19
0.00262501
-5.96311e-19
0.00262501
-1.02999e-18
0.00262501
-1.57209e-18
0.00262501
-4.33681e-19
0.00262501
5.42101e-20
0.00262501
-8.13152e-19
0.00262501
-1.6263e-18
0.00262501
5.42101e-19
0.00262501
-6.50521e-19
0.00262501
-1.13841e-18
0.00262501
-1.51788e-18
0.00262501
-1.51788e-18
0.00262501
-5.96311e-19
0.00262501
6.50521e-19
0.00262501
-1.35525e-18
0.00262501
0
0.00262501
-1.51788e-18
0.00262501
-4.33681e-19
0.00262501
-9.21572e-19
0.00262501
-1.0842e-19
0.00262501
1.0842e-19
0.00262501
-8.67362e-19
0.00262501
5.42101e-20
0.00262501
-2.38524e-18
0.00262501
-1.84314e-18
0.00262501
-1.73472e-18
0.00262501
-1.40946e-18
0.00262501
-1.35525e-18
0.00262501
1.0842e-19
0.00262501
-1.13841e-18
0.00262501
-2.11419e-18
0.00262501
-2.98156e-18
0.00262501
1.13841e-18
0.00262501
1.13841e-18
0.00262501
2.80808e-17
0.00262501
1.87816e-15
0.00262501
1.06275e-13
0.00262501
7.75591e-12
0.002625
3.20617e-10
0.00262455
3.37239e-08
0.00259983
7.06551e-07
0.00213701
0.000370942
0.00192928
0.000543432
0.00173875
0.000630699
0.00160728
0.000573839
0.00153924
0.000548269
0.00152484
0.000546871
0.00153426
0.00057225
0.00152484
0.000601479
0.00147189
0.000619215
0.00138033
0.000627968
0.00126408
0.000627763
0.00114297
0.00062315
0.00103822
0.00062322
0.000950585
0.000628453
0.000882079
0.000637207
0.000819934
0.000643567
0.000750728
0.000633327
0.000673833
0.000603206
0.000594348
0.000559197
0.000516447
0.000512057
0.000448593
0.000474007
0.000390557
0.000453615
0.000338121
0.000451351
0.000285767
0.000455759
0.000229561
0.000461696
0.000170157
0.000467065
0.000109965
0.000469981
5.16832e-05
0.000472223
0.000466794
0.00262501
3.25261e-19
0.00262501
8.67362e-19
0.00262501
3.25261e-19
0.00262501
3.79471e-19
0.00262501
-3.25261e-19
0.00262501
0
0.00262501
4.33681e-19
0.00262501
-9.75782e-19
0.00262501
2.76472e-18
0.00262501
1.84314e-18
0.00262501
1.40946e-18
0.00262501
-1.0842e-19
0.00262501
-6.50521e-19
0.00262501
-4.33681e-19
0.00262501
-1.0842e-19
0.00262501
2.54788e-18
0.00262501
1.57209e-18
0.00262501
2.1684e-18
0.00262501
1.57209e-18
0.00262501
1.46367e-18
0.00262501
-3.25261e-19
0.00262501
-1.35525e-18
0.00262501
-2.71051e-19
0.00262501
-5.96311e-19
0.00262501
8.67362e-19
0.00262501
2.00577e-18
0.00262501
3.79471e-19
0.00262501
9.75782e-19
0.00262501
2.71051e-19
0.00262501
2.71051e-19
0.00262501
-1.6263e-19
0.00262501
1.0842e-18
0.00262501
8.13152e-19
0.00262501
-1.89735e-18
0.00262501
-2.00577e-18
0.00262501
-1.84314e-18
0.00262501
-1.73472e-18
0.00262501
-7.04731e-19
0.00262501
-6.50521e-19
0.00262501
-3.79471e-19
0.00262501
-7.58942e-19
0.00262501
-5.42101e-20
0.00262501
1.13841e-18
0.00262501
5.42101e-20
0.00262501
3.25261e-19
0.00262501
-1.40946e-18
0.00262501
-2.00577e-18
0.00262501
-1.02999e-18
0.00262501
-1.46367e-18
0.00262501
-1.46367e-18
0.00262501
-1.46367e-18
0.00262501
-1.24683e-18
0.00262501
-1.13841e-18
0.00262501
3.25261e-19
0.00262501
-4.33681e-19
0.00262501
1.0842e-19
0.00262501
1.46367e-18
0.00262501
1.30104e-18
0.00262501
-6.50521e-19
0.00262501
-1.51788e-18
0.00262501
3.03577e-17
0.00262501
1.98783e-15
0.00262501
1.20774e-13
0.00262501
8.23001e-12
0.002625
3.96097e-10
0.00262452
3.55939e-08
0.00259846
1.0177e-06
0.00210945
0.00041538
0.00189397
0.000573967
0.00172338
0.000683509
0.00161248
0.00063633
0.00156343
0.000614112
0.00157181
0.000623633
0.00157926
0.000655544
0.00155332
0.000688508
0.00148466
0.000704158
0.00138646
0.000707812
0.00126322
0.000704634
0.00114714
0.000698699
0.00104866
0.000699259
0.000966141
0.000705535
0.000901258
0.000716058
0.000838491
0.000722755
0.000766446
0.000711888
0.000686333
0.000680398
0.000604168
0.000634028
0.000524976
0.000583567
0.00045619
0.000540947
0.00039745
0.000515683
0.000344201
0.000511062
0.000290316
0.00051511
0.000232333
0.000521178
0.000171839
0.000526763
0.000111093
0.000530295
5.28371e-05
0.000532634
0.000531186
0.00262501
5.42101e-20
0.00262501
-1.57209e-18
0.00262501
9.21572e-19
0.00262501
-6.50521e-19
0.00262501
1.6263e-19
0.00262501
4.87891e-19
0.00262501
-1.6263e-19
0.00262501
2.71051e-18
0.00262501
9.21572e-19
0.00262501
3.25261e-19
0.00262501
5.96311e-19
0.00262501
1.89735e-18
0.00262501
9.75782e-19
0.00262501
2.33103e-18
0.00262501
2.27682e-18
0.00262501
-1.35525e-18
0.00262501
1.40946e-18
0.00262501
-1.0842e-19
0.00262501
9.75782e-19
0.00262501
1.73472e-18
0.00262501
1.89735e-18
0.00262501
1.6263e-18
0.00262501
-3.25261e-19
0.00262501
5.96311e-19
0.00262501
-7.04731e-19
0.00262501
-9.21572e-19
0.00262501
1.19262e-18
0.00262501
1.6263e-19
0.00262501
2.54788e-18
0.00262501
1.57209e-18
0.00262501
3.57787e-18
0.00262501
-5.42101e-20
0.00262501
-1.24683e-18
0.00262501
-1.84314e-18
0.00262501
-1.89735e-18
0.00262501
-1.6263e-18
0.00262501
-1.19262e-18
0.00262501
2.71051e-19
0.00262501
-9.75782e-19
0.00262501
-2.87314e-18
0.00262501
-1.40946e-18
0.00262501
-2.33103e-18
0.00262501
-1.6263e-18
0.00262501
-2.81893e-18
0.00262501
-3.41524e-18
0.00262501
-1.0842e-18
0.00262501
-4.33681e-19
0.00262501
1.6263e-19
0.00262501
-5.42101e-20
0.00262501
-2.22261e-18
0.00262501
-5.42101e-19
0.00262501
-3.30682e-18
0.00262501
-5.42101e-20
0.00262501
-1.19262e-18
0.00262501
-6.50521e-19
0.00262501
-4.33681e-19
0.00262501
-1.89735e-18
0.00262501
-3.79471e-19
0.00262501
-1.0842e-18
0.00262501
-1.46367e-18
0.00262501
2.92735e-17
0.00262501
1.97737e-15
0.00262501
1.28856e-13
0.00262501
8.46024e-12
0.002625
4.72093e-10
0.00262451
3.67611e-08
0.00259685
1.36896e-06
0.00208934
0.000440583
0.00186415
0.000592533
0.00170136
0.000737986
0.00162586
0.000698787
0.001609
0.0006825
0.00162496
0.000704698
0.00162275
0.000745705
0.00157661
0.000778189
0.00149127
0.000789865
0.00138436
0.000786023
0.00126237
0.000777717
0.00115426
0.000771476
0.00106357
0.000773781
0.000987721
0.000782865
0.000924578
0.000795881
0.000859341
0.000803158
0.000783307
0.000791434
0.0006999
0.000758763
0.000614946
0.000710479
0.000534668
0.000657155
0.000464637
0.000610218
0.000404298
0.000579976
0.000349819
0.000571875
0.000294131
0.000575124
0.000234601
0.000581162
0.000173146
0.000587141
0.00011195
0.000592095
5.23588e-05
0.000592959
0.000598174
0.00262501
-5.96311e-19
0.00262501
1.40946e-18
0.00262501
4.33681e-19
0.00262501
1.0842e-18
0.00262501
-7.04731e-19
0.00262501
1.0842e-19
0.00262501
5.42101e-20
0.00262501
-5.96311e-19
0.00262501
1.51788e-18
0.00262501
-3.79471e-19
0.00262501
5.42101e-20
0.00262501
1.19262e-18
0.00262501
1.13841e-18
0.00262501
1.68051e-18
0.00262501
1.6263e-19
0.00262501
1.73472e-18
0.00262501
-1.6263e-18
0.00262501
1.84314e-18
0.00262501
-5.42101e-19
0.00262501
1.51788e-18
0.00262501
1.68051e-18
0.00262501
1.6263e-18
0.00262501
2.27682e-18
0.00262501
7.58942e-19
0.00262501
-5.42101e-20
0.00262501
7.58942e-19
0.00262501
1.35525e-18
0.00262501
2.6563e-18
0.00262501
2.87314e-18
0.00262501
1.95156e-18
0.00262501
1.95156e-18
0.00262501
4.33681e-19
0.00262501
5.42101e-20
0.00262501
-7.58942e-19
0.00262501
-1.24683e-18
0.00262501
-2.60209e-18
0.00262501
-1.84314e-18
0.00262501
-2.33103e-18
0.00262501
-1.02999e-18
0.00262501
1.0842e-19
0.00262501
-8.13152e-19
0.00262501
-1.40946e-18
0.00262501
-8.67362e-19
0.00262501
-2.00577e-18
0.00262501
-9.75782e-19
0.00262501
-2.05998e-18
0.00262501
-1.0842e-18
0.00262501
-4.87891e-19
0.00262501
-1.6263e-19
0.00262501
3.08998e-18
0.00262501
1.02999e-18
0.00262501
2.43945e-18
0.00262501
-1.0842e-19
0.00262501
-9.75782e-19
0.00262501
-1.24683e-18
0.00262501
-9.75782e-19
0.00262501
8.67362e-19
0.00262501
-1.51788e-18
0.00262501
1.6263e-19
0.00262501
-7.58942e-19
0.00262501
2.61293e-17
0.00262501
1.81387e-15
0.00262501
1.25323e-13
0.00262501
8.20271e-12
0.002625
5.19386e-10
0.0026245
3.64819e-08
0.00259573
1.76976e-06
0.00207458
0.000439651
0.00183636
0.000596964
0.00169586
0.000790096
0.00165915
0.000764504
0.00166995
0.00076435
0.00168013
0.000794
0.0016586
0.000841854
0.00159217
0.000870715
0.00149631
0.000871055
0.00138377
0.000858983
0.00126946
0.000845206
0.00117082
0.000841472
0.00108624
0.000848459
0.00101606
0.000862196
0.000952009
0.000878315
0.00088155
0.000885657
0.000801193
0.00087245
0.000715303
0.000838002
0.000628184
0.000788116
0.000547695
0.000732245
0.000477004
0.000681325
0.000415078
0.000646215
0.000358753
0.000633876
0.000301017
0.000636069
0.000239729
0.000642439
0.000177132
0.000649068
0.000115293
0.000656489
5.34494e-05
0.000658327
0.000662528
0.00262501
-1.0842e-19
0.00262501
-2.38524e-18
0.00262501
3.25261e-19
0.00262501
-5.96311e-19
0.00262501
-6.50521e-19
0.00262501
-3.57787e-18
0.00262501
-1.24683e-18
0.00262501
-2.43945e-18
0.00262501
-4.33681e-19
0.00262501
1.6263e-18
0.00262501
3.79471e-19
0.00262501
-4.33681e-19
0.00262501
1.51788e-18
0.00262501
-2.22261e-18
0.00262501
9.75782e-19
0.00262501
-9.75782e-19
0.00262501
1.02999e-18
0.00262501
1.40946e-18
0.00262501
2.1684e-19
0.00262501
1.46367e-18
0.00262501
4.01155e-18
0.00262501
1.95156e-18
0.00262501
2.43945e-18
0.00262501
2.49366e-18
0.00262501
2.60209e-18
0.00262501
2.11419e-18
0.00262501
3.14419e-18
0.00262501
2.76472e-18
0.00262501
3.63208e-18
0.00262501
1.19262e-18
0.00262501
6.50521e-19
0.00262501
-1.0842e-18
0.00262501
-7.58942e-19
0.00262501
-3.79471e-19
0.00262501
-1.68051e-18
0.00262501
-3.79471e-19
0.00262501
-1.02999e-18
0.00262501
1.40946e-18
0.00262501
5.42101e-20
0.00262501
-1.19262e-18
0.00262501
-5.96311e-19
0.00262501
-2.05998e-18
0.00262501
-1.35525e-18
0.00262501
-1.40946e-18
0.00262501
-2.92735e-18
0.00262501
3.79471e-19
0.00262501
-5.42101e-19
0.00262501
-9.75782e-19
0.00262501
-1.30104e-18
0.00262501
-1.57209e-18
0.00262501
1.35525e-18
0.00262501
3.79471e-19
0.00262501
1.6263e-19
0.00262501
-1.24683e-18
0.00262501
-1.19262e-18
0.00262501
-1.46367e-18
0.00262501
-2.49366e-18
0.00262501
-1.40946e-18
0.00262501
-1.13841e-18
0.00262501
-9.21572e-19
0.00262501
1.90277e-17
0.00262501
1.49902e-15
0.00262501
1.08271e-13
0.00262501
7.24864e-12
0.002625
5.07593e-10
0.00262453
3.39368e-08
0.00259579
2.06384e-06
0.00206632
0.000404584
0.00183694
0.000586006
0.00172981
0.000850589
0.00172153
0.000839832
0.00173641
0.000853082
0.00173031
0.000892774
0.00168178
0.000939351
0.00160018
0.000958752
0.00150183
0.000945366
0.00138883
0.000924003
0.00128584
0.000909317
0.00119604
0.000911224
0.00111584
0.000925666
0.00104778
0.000945894
0.00098013
0.000964027
0.000903892
0.000969537
0.000819699
0.000953722
0.000732275
0.000917625
0.000644287
0.000866549
0.000563708
0.000808888
0.000491804
0.000754751
0.00042773
0.000715
0.000368515
0.000698057
0.000308274
0.000698701
0.000245684
0.000705662
0.000182202
0.000713617
0.000120046
0.000723889
5.71036e-05
0.000728753
0.000722308
0.00262501
2.71051e-19
0.00262501
2.71051e-18
0.00262501
5.42101e-20
0.00262501
-9.75782e-19
0.00262501
-7.04731e-19
0.00262501
-1.19262e-18
0.00262501
-9.75782e-19
0.00262501
-3.25261e-19
0.00262501
-1.95156e-18
0.00262501
-3.25261e-19
0.00262501
-1.84314e-18
0.00262501
8.67362e-19
0.00262501
-4.33681e-19
0.00262501
1.0842e-19
0.00262501
-5.42101e-19
0.00262501
2.33103e-18
0.00262501
2.1684e-19
0.00262501
-5.96311e-19
0.00262501
1.6263e-18
0.00262501
8.67362e-19
0.00262501
9.21572e-19
0.00262501
1.73472e-18
0.00262501
1.68051e-18
0.00262501
1.51788e-18
0.00262501
7.58942e-19
0.00262501
1.13841e-18
0.00262501
1.02999e-18
0.00262501
1.0842e-18
0.00262501
1.40946e-18
0.00262501
7.04731e-19
0.00262501
2.38524e-18
0.00262501
5.42101e-20
0.00262501
2.1684e-19
0.00262501
3.79471e-19
0.00262501
1.6263e-19
0.00262501
5.96311e-19
0.00262501
1.95156e-18
0.00262501
7.04731e-19
0.00262501
2.1684e-19
0.00262501
-2.27682e-18
0.00262501
-2.05998e-18
0.00262501
-1.13841e-18
0.00262501
-2.81893e-18
0.00262501
-1.51788e-18
0.00262501
0
0.00262501
-4.2826e-18
0.00262501
-1.73472e-18
0.00262501
-2.6563e-18
0.00262501
-2.1684e-18
0.00262501
4.33681e-19
0.00262501
1.13841e-18
0.00262501
1.19262e-18
0.00262501
6.50521e-19
0.00262501
-1.0842e-19
0.00262501
4.87891e-19
0.00262501
4.33681e-19
0.00262501
-3.25261e-19
0.00262501
-1.51788e-18
0.00262501
-4.22839e-18
0.00262501
-3.79471e-19
0.00262501
1.5233e-17
0.00262501
1.10486e-15
0.00262501
8.2466e-14
0.00262501
5.67249e-12
0.002625
4.23933e-10
0.00262459
2.80763e-08
0.00259825
2.04387e-06
0.00208367
0.00033149
0.00186254
0.000562399
0.00177546
0.000930398
0.001792
0.000923453
0.00180022
0.000948481
0.00176727
0.0009926
0.00169943
0.00103118
0.00161293
0.0010304
0.00150945
0.0010103
0.0014014
0.000985333
0.00130575
0.000975626
0.00122113
0.000985432
0.00114654
0.00100703
0.00107869
0.00103295
0.00100742
0.0010509
0.000927329
0.0010526
0.000840528
0.00103434
0.000750874
0.000997687
0.000663191
0.000946169
0.000581934
0.000887415
0.000507846
0.000830991
0.000441536
0.000786795
0.000378945
0.000765375
0.000316692
0.000763356
0.000252816
0.000771095
0.000187997
0.000781297
0.000126641
0.000791751
7.01654e-05
0.000796252
0.000785177
0.00262501
-3.79471e-19
0.00262501
-2.54788e-18
0.00262501
4.87891e-19
0.00262501
1.02999e-18
0.00262501
-9.21572e-19
0.00262501
-1.30104e-18
0.00262501
5.42101e-20
0.00262501
-9.75782e-19
0.00262501
-7.04731e-19
0.00262501
-1.0842e-19
0.00262501
-1.02999e-18
0.00262501
-7.04731e-19
0.00262501
2.71051e-19
0.00262501
-2.1684e-19
0.00262501