/*--------------------------------*- C++ -*----------------------------------*\
| =========                 |                                                 |
| \\      /  F ield         | OpenFOAM: The Open Source CFD Toolbox           |
|  \\    /   O peration     | Version:  v1812                                 |
|   \\  /    A nd           | Web:      www.OpenFOAM.com                      |
|    \\/     M anipulation  |                                                 |
\*---------------------------------------------------------------------------*/
FoamFile
{
    version     2.0;
    format      ascii;
    class       volVectorField;
    location    "0.3";
    object      U;
}
// * * * * * * * * * * * * * * * * * * * * * * * * * * * * * * * * * * * * * //

dimensions      [0 1 -1 0 0 0 0];


internalField   nonuniform List<vector> 
64512
(
(3 1.28415e-16 0)
(3 -1.68465e-16 0)
(3 4.79976e-16 0)
(3 3.85501e-16 0)
(3 7.55057e-16 0)
(3 8.78498e-16 0)
(3 6.29868e-16 0)
(3 3.70672e-16 0)
(3 4.4054e-16 0)
(3 4.85332e-16 0)
(3 6.68344e-16 0)
(3 6.65827e-16 0)
(3 8.35848e-16 0)
(3 2.22874e-16 0)
(3 5.03167e-16 0)
(3 1.03457e-15 0)
(3 1.43667e-15 0)
(3 1.24497e-15 0)
(3 6.6834e-16 0)
(3 4.12147e-16 0)
(3 7.16854e-18 0)
(3 -2.08279e-16 0)
(3 2.50679e-16 0)
(3 -3.8693e-16 0)
(3 -3.00411e-16 0)
(3 -6.91586e-16 0)
(3 -5.76885e-16 0)
(3 -5.89542e-16 0)
(3 -8.88577e-16 0)
(3 -1.0792e-15 0)
(3 -6.37853e-16 0)
(3 -3.49403e-16 0)
(3 -1.55128e-16 0)
(3 1.90605e-16 0)
(3 1.92783e-16 0)
(3 -5.11849e-16 0)
(3 4.92727e-17 0)
(3 -2.34154e-16 0)
(3 8.02504e-17 0)
(3 2.1392e-17 0)
(3 3.82849e-16 0)
(3 1.61691e-16 0)
(3 2.48812e-16 0)
(3 2.88564e-17 0)
(3 2.94329e-16 0)
(3 1.66072e-16 0)
(3 -5.70907e-17 0)
(3 -1.75867e-16 0)
(3 -3.84503e-16 0)
(3 3.0653e-16 0)
(3 1.26083e-15 0)
(3 2.38791e-15 0)
(3 1.48932e-15 0)
(3 8.18461e-16 0)
(3 8.96152e-16 0)
(3 1.18523e-15 0)
(3 9.8187e-16 0)
(3 9.25254e-16 0)
(3 8.14404e-16 0)
(3 5.32827e-16 0)
(3 1.27741e-15 0)
(3 1.19908e-13 0)
(3 9.54546e-12 0)
(3 1.42545e-09 0)
(2.99998 1.18116e-07 0)
(2.99862 1.47524e-05 0)
(2.76868 0.00187166 0)
(1.00595 0.00502087 0)
(0.636818 0.00431638 0)
(0.533346 0.0109186 0)
(0.491965 0.010647 0)
(0.448345 0.0099504 0)
(0.41783 0.00980619 0)
(0.401096 0.00969255 0)
(0.393552 0.0105025 0)
(0.389371 0.0113519 0)
(0.380246 0.0122267 0)
(0.359115 0.0130221 0)
(0.330324 0.0134543 0)
(0.298513 0.0133527 0)
(0.269093 0.0127322 0)
(0.245761 0.012048 0)
(0.226185 0.0118123 0)
(0.209363 0.0118231 0)
(0.192363 0.0114586 0)
(0.173439 0.0104482 0)
(0.155197 0.00914372 0)
(0.137807 0.00843067 0)
(0.121318 0.0082338 0)
(0.105523 0.00825195 0)
(0.0893158 0.0082259 0)
(0.0729948 0.00821263 0)
(0.0565539 0.00811015 0)
(0.0397269 0.00805656 0)
(0.0232427 0.00776818 0)
(0.00817569 0.00794866 0)
(3 1.79806e-16 0)
(3 7.36336e-17 0)
(3 4.14396e-16 0)
(3 3.40485e-16 0)
(3 2.83084e-16 0)
(3 4.61241e-16 0)
(3 5.93196e-16 0)
(3 5.79476e-19 0)
(3 2.96348e-16 0)
(3 9.85957e-17 0)
(3 4.21593e-16 0)
(3 5.08962e-17 0)
(3 1.51319e-16 0)
(3 4.39333e-17 0)
(3 -1.32263e-16 0)
(3 7.24106e-16 0)
(3 8.38961e-16 0)
(3 5.36188e-16 0)
(3 2.07995e-16 0)
(3 -3.14934e-16 0)
(3 -1.34319e-15 0)
(3 -1.27777e-15 0)
(3 -1.09463e-16 0)
(3 -2.31164e-16 0)
(3 9.771e-16 0)
(3 -8.13814e-17 0)
(3 -7.41302e-16 0)
(3 -1.16914e-15 0)
(3 -1.0948e-15 0)
(3 -7.66416e-16 0)
(3 -3.45164e-16 0)
(3 -7.85212e-16 0)
(3 -5.07168e-16 0)
(3 3.68317e-16 0)
(3 1.43723e-15 0)
(3 9.33922e-16 0)
(3 9.72481e-16 0)
(3 5.42154e-16 0)
(3 -5.01387e-16 0)
(3 -9.025e-16 0)
(3 -3.01452e-16 0)
(3 -6.38996e-16 0)
(3 -9.43666e-16 0)
(3 -1.02278e-15 0)
(3 -3.99947e-16 0)
(3 4.24983e-16 0)
(3 3.00597e-16 0)
(3 -7.8295e-16 0)
(3 -1.11894e-15 0)
(3 -8.55627e-16 0)
(3 4.81409e-16 0)
(3 2.01758e-15 0)
(3 2.0586e-15 0)
(3 1.36617e-15 0)
(3 6.75539e-16 0)
(3 1.59277e-16 0)
(3 -4.31645e-16 0)
(3 -6.32657e-16 0)
(3 -5.7635e-17 0)
(3 3.55542e-16 0)
(3 9.5895e-15 0)
(3 8.92392e-13 0)
(3 8.17689e-11 0)
(3 1.02176e-08 0)
(2.99998 8.80457e-07 0)
(2.99874 0.000105618 0)
(2.79049 0.0113789 0)
(1.02863 0.0224273 0)
(0.652542 0.0332871 0)
(0.548698 0.0399227 0)
(0.506527 0.0328823 0)
(0.462759 0.0294804 0)
(0.432937 0.027892 0)
(0.416121 0.0279146 0)
(0.408702 0.0301296 0)
(0.404221 0.0328876 0)
(0.394186 0.0348789 0)
(0.372951 0.0356066 0)
(0.344775 0.0353509 0)
(0.313367 0.0346981 0)
(0.283678 0.0340441 0)
(0.259037 0.0340073 0)
(0.237653 0.0346465 0)
(0.219275 0.0348777 0)
(0.20139 0.0332802 0)
(0.182265 0.0298227 0)
(0.163947 0.0262284 0)
(0.14612 0.0245082 0)
(0.129359 0.0244591 0)
(0.113082 0.0249798 0)
(0.0965135 0.0253537 0)
(0.0797784 0.0257495 0)
(0.0625293 0.0261557 0)
(0.0444988 0.0267642 0)
(0.026691 0.0264588 0)
(0.00952152 0.027722 0)
(3 1.05117e-16 0)
(3 3.70463e-16 0)
(3 -1.88704e-16 0)
(3 -2.87462e-16 0)
(3 -6.30825e-16 0)
(3 -4.81546e-16 0)
(3 -2.56444e-16 0)
(3 -2.66655e-16 0)
(3 -1.48705e-16 0)
(3 -2.44157e-17 0)
(3 6.21674e-16 0)
(3 4.73411e-16 0)
(3 8.28007e-16 0)
(3 1.6691e-15 0)
(3 8.65239e-16 0)
(3 -9.8671e-16 0)
(3 -1.96044e-15 0)
(3 -1.54678e-15 0)
(3 -1.23736e-15 0)
(3 -1.60749e-15 0)
(3 -1.20421e-15 0)
(3 -1.42636e-15 0)
(3 -1.5744e-15 0)
(3 -1.09883e-15 0)
(3 -9.48224e-16 0)
(3 -4.00034e-16 0)
(3 -1.57479e-16 0)
(3 -5.27325e-16 0)
(3 8.52233e-16 0)
(3 1.20933e-15 0)
(3 1.29218e-15 0)
(3 1.0297e-15 0)
(3 7.00977e-17 0)
(3 -8.61482e-16 0)
(3 -1.59918e-15 0)
(3 -6.71837e-16 0)
(3 -1.04969e-15 0)
(3 -5.03691e-16 0)
(3 -5.65865e-16 0)
(3 -9.17819e-16 0)
(3 -1.36161e-15 0)
(3 -1.54186e-15 0)
(3 -2.83511e-15 0)
(3 -3.9442e-15 0)
(3 -3.23845e-15 0)
(3 -2.28434e-15 0)
(3 -7.50214e-16 0)
(3 -5.87619e-16 0)
(3 -5.28753e-16 0)
(3 2.4786e-16 0)
(3 4.00454e-16 0)
(3 6.40097e-16 0)
(3 1.36725e-15 0)
(3 7.38181e-16 0)
(3 6.58319e-16 0)
(3 4.58137e-16 0)
(3 -1.69027e-16 0)
(3 -2.21757e-16 0)
(3 3.13752e-16 0)
(3 1.06446e-15 0)
(3 1.28828e-14 0)
(3 1.12688e-12 0)
(3 8.83498e-11 0)
(3 1.11012e-08 0)
(2.99999 9.52384e-07 0)
(2.99893 0.000115942 0)
(2.8209 0.0121603 0)
(1.05062 0.0321818 0)
(0.656192 0.0467412 0)
(0.547777 0.0637667 0)
(0.503986 0.0545037 0)
(0.459973 0.0502649 0)
(0.430805 0.0483604 0)
(0.414724 0.0487129 0)
(0.408645 0.0515823 0)
(0.405957 0.0552831 0)
(0.397585 0.0577461 0)
(0.378288 0.0586556 0)
(0.351912 0.0586803 0)
(0.321649 0.0586419 0)
(0.292513 0.05862 0)
(0.267549 0.0590213 0)
(0.24556 0.0598189 0)
(0.226377 0.0594906 0)
(0.207504 0.0562312 0)
(0.187145 0.0505932 0)
(0.167046 0.0450335 0)
(0.147132 0.0422566 0)
(0.128746 0.0419148 0)
(0.111104 0.0425226 0)
(0.0937911 0.0430084 0)
(0.0768147 0.0436983 0)
(0.0594922 0.0443694 0)
(0.0419405 0.0455696 0)
(0.0254246 0.0444304 0)
(0.0100044 0.0459113 0)
(3 -2.61305e-16 0)
(3 -3.01703e-16 0)
(3 6.41189e-16 0)
(3 3.91387e-16 0)
(3 2.0548e-16 0)
(3 -4.10362e-17 0)
(3 -2.37277e-18 0)
(3 7.57118e-16 0)
(3 2.41206e-16 0)
(3 3.06372e-16 0)
(3 5.98112e-16 0)
(3 6.47442e-16 0)
(3 1.32244e-15 0)
(3 8.26038e-16 0)
(3 3.87975e-16 0)
(3 3.7414e-16 0)
(3 2.19372e-16 0)
(3 9.70266e-16 0)
(3 1.20325e-15 0)
(3 7.97215e-16 0)
(3 9.49097e-16 0)
(3 1.96454e-16 0)
(3 -4.27433e-16 0)
(3 -1.15289e-15 0)
(3 -1.96563e-15 0)
(3 -1.4731e-15 0)
(3 -1.18928e-15 0)
(3 -9.26371e-16 0)
(3 -8.25594e-16 0)
(3 2.74707e-16 0)
(3 2.49716e-16 0)
(3 1.18592e-15 0)
(3 1.56324e-15 0)
(3 1.05016e-15 0)
(3 -1.07744e-15 0)
(3 -1.10979e-15 0)
(3 -8.44178e-17 0)
(3 -4.99145e-17 0)
(3 -5.94478e-17 0)
(3 -2.81374e-16 0)
(3 -9.63757e-16 0)
(3 -8.79346e-16 0)
(3 -1.14e-16 0)
(3 3.51528e-16 0)
(3 5.66785e-17 0)
(3 2.64898e-16 0)
(3 3.47105e-16 0)
(3 1.46722e-15 0)
(3 1.99539e-15 0)
(3 2.51535e-15 0)
(3 2.51425e-15 0)
(3 1.37229e-15 0)
(3 2.81956e-16 0)
(3 2.54095e-16 0)
(3 4.26632e-17 0)
(3 7.83408e-16 0)
(3 4.36265e-16 0)
(3 9.25196e-16 0)
(3 4.90625e-16 0)
(3 6.79807e-16 0)
(3 1.37136e-14 0)
(3 1.21397e-12 0)
(3 7.39263e-11 0)
(3 9.63752e-09 0)
(2.99999 8.48945e-07 0)
(2.99913 0.000116843 0)
(2.85814 0.013565 0)
(1.08142 0.0440914 0)
(0.655643 0.0680026 0)
(0.537986 0.0886753 0)
(0.493542 0.0761586 0)
(0.45141 0.0700804 0)
(0.425315 0.0672048 0)
(0.410809 0.0674744 0)
(0.406189 0.0709169 0)
(0.403664 0.0750039 0)
(0.394711 0.0778488 0)
(0.37475 0.0792838 0)
(0.348508 0.0803286 0)
(0.318849 0.0815207 0)
(0.290954 0.0826875 0)
(0.266877 0.0840926 0)
(0.24574 0.0855612 0)
(0.226885 0.0849266 0)
(0.207827 0.0802915 0)
(0.187082 0.0727084 0)
(0.166466 0.0651435 0)
(0.146118 0.0608002 0)
(0.127866 0.0596884 0)
(0.110413 0.0601673 0)
(0.0935344 0.060729 0)
(0.0769603 0.0617553 0)
(0.0597207 0.0626839 0)
(0.0421683 0.0642575 0)
(0.0259231 0.0628531 0)
(0.0104363 0.0625436 0)
(3 -1.57e-16 0)
(3 -1.77083e-16 0)
(3 2.18669e-16 0)
(3 9.81302e-17 0)
(3 5.15278e-17 0)
(3 -4.96176e-17 0)
(3 1.87007e-16 0)
(3 1.65264e-16 0)
(3 7.69785e-16 0)
(3 9.94229e-16 0)
(3 5.85166e-16 0)
(3 9.81299e-16 0)
(3 4.83875e-16 0)
(3 3.383e-16 0)
(3 -1.95654e-16 0)
(3 -5.40461e-16 0)
(3 -3.74002e-16 0)
(3 -1.05251e-15 0)
(3 -6.29099e-16 0)
(3 -1.34618e-16 0)
(3 -3.66896e-16 0)
(3 3.45021e-16 0)
(3 2.83158e-16 0)
(3 2.62304e-16 0)
(3 5.05219e-16 0)
(3 4.91657e-16 0)
(3 -6.60372e-18 0)
(3 2.90267e-16 0)
(3 5.05875e-16 0)
(3 9.20546e-16 0)
(3 1.02784e-15 0)
(3 1.49229e-15 0)
(3 1.88068e-15 0)
(3 2.15937e-15 0)
(3 2.66713e-15 0)
(3 2.67923e-15 0)
(3 1.9825e-15 0)
(3 8.34944e-16 0)
(3 -3.5101e-16 0)
(3 -8.9812e-16 0)
(3 -3.63829e-16 0)
(3 -3.62054e-16 0)
(3 -1.01164e-16 0)
(3 3.00585e-16 0)
(3 1.4173e-16 0)
(3 -3.21995e-16 0)
(3 -1.2762e-15 0)
(3 -7.30224e-16 0)
(3 -2.73718e-16 0)
(3 -5.29206e-16 0)
(3 2.11691e-16 0)
(3 -1.93284e-16 0)
(3 -5.15924e-16 0)
(3 4.59947e-16 0)
(3 -1.50613e-16 0)
(3 -7.35735e-17 0)
(3 -4.21462e-16 0)
(3 -6.18934e-16 0)
(3 -1.7063e-15 0)
(3 -1.13408e-15 0)
(3 1.70249e-14 0)
(3 1.35469e-12 0)
(3 6.64406e-11 0)
(3 7.65727e-09 0)
(2.99999 5.39474e-07 0)
(2.99932 9.38871e-05 0)
(2.90338 0.0123192 0)
(1.12451 0.063142 0)
(0.660336 0.0893106 0)
(0.534117 0.112271 0)
(0.489826 0.0977999 0)
(0.450985 0.0903903 0)
(0.427424 0.0872738 0)
(0.414468 0.0880103 0)
(0.410302 0.0920897 0)
(0.405954 0.0961843 0)
(0.393996 0.0989336 0)
(0.371541 0.100266 0)
(0.343978 0.101507 0)
(0.314326 0.103338 0)
(0.287845 0.105535 0)
(0.265248 0.108 0)
(0.245808 0.110202 0)
(0.228183 0.10934 0)
(0.209749 0.103582 0)
(0.189231 0.0943921 0)
(0.168379 0.0850751 0)
(0.147658 0.0791881 0)
(0.129162 0.0772689 0)
(0.111645 0.0777194 0)
(0.0949086 0.0785484 0)
(0.0785319 0.0800623 0)
(0.06103 0.0814463 0)
(0.0434848 0.0829942 0)
(0.0261975 0.0818156 0)
(0.00968135 0.0794335 0)
(3 2.78463e-16 0)
(3 -1.22713e-17 0)
(3 -4.36245e-16 0)
(3 -4.89563e-16 0)
(3 -3.6645e-16 0)
(3 -2.90657e-16 0)
(3 -3.09652e-16 0)
(3 -4.02384e-16 0)
(3 -5.49259e-17 0)
(3 8.79565e-16 0)
(3 2.03067e-15 0)
(3 2.32878e-15 0)
(3 9.58693e-16 0)
(3 1.86168e-16 0)
(3 4.00054e-16 0)
(3 3.57834e-16 0)
(3 4.58208e-16 0)
(3 2.97436e-17 0)
(3 1.82527e-16 0)
(3 5.34155e-16 0)
(3 -1.34172e-16 0)
(3 1.01298e-16 0)
(3 -5.88119e-16 0)
(3 -5.4123e-16 0)
(3 -1.00858e-15 0)
(3 -1.09974e-15 0)
(3 -5.12364e-16 0)
(3 2.24641e-17 0)
(3 9.42012e-16 0)
(3 8.46198e-16 0)
(3 7.89129e-16 0)
(3 9.79785e-16 0)
(3 9.43512e-16 0)
(3 8.41799e-17 0)
(3 -2.0616e-16 0)
(3 -3.13989e-16 0)
(3 -9.8929e-16 0)
(3 -1.11295e-15 0)
(3 -1.96145e-15 0)
(3 -1.48829e-15 0)
(3 -7.10713e-16 0)
(3 -3.97731e-16 0)
(3 -6.17646e-16 0)
(3 -1.30678e-15 0)
(3 -1.72426e-15 0)
(3 -1.54007e-15 0)
(3 -2.85555e-15 0)
(3 -2.79888e-15 0)
(3 -2.28166e-15 0)
(3 -1.43847e-15 0)
(3 -7.77373e-16 0)
(3 -4.82689e-16 0)
(3 -2.32407e-16 0)
(3 2.07462e-16 0)
(3 -5.37e-17 0)
(3 -2.08505e-16 0)
(3 1.11723e-16 0)
(3 1.83932e-16 0)
(3 -1.80008e-16 0)
(3 2.54387e-17 0)
(3 2.25082e-14 0)
(3 1.55924e-12 0)
(3 7.1774e-11 0)
(3 6.88316e-09 0)
(2.99999 2.66356e-07 0)
(2.99946 4.48483e-05 0)
(2.94512 0.00624523 0)
(1.17928 0.0835152 0)
(0.667503 0.109854 0)
(0.530798 0.133578 0)
(0.486152 0.117944 0)
(0.451877 0.10975 0)
(0.431081 0.106925 0)
(0.420784 0.108845 0)
(0.417487 0.113785 0)
(0.411523 0.118176 0)
(0.396598 0.121111 0)
(0.371933 0.122435 0)
(0.342924 0.123522 0)
(0.313004 0.125411 0)
(0.287401 0.128078 0)
(0.265763 0.131266 0)
(0.247494 0.134066 0)
(0.230459 0.133055 0)
(0.211855 0.126609 0)
(0.190795 0.116341 0)
(0.169022 0.105628 0)
(0.14759 0.0981797 0)
(0.128552 0.0952514 0)
(0.111008 0.0955978 0)
(0.0945469 0.0967137 0)
(0.0782187 0.0985635 0)
(0.0610113 0.100257 0)
(0.0432858 0.101374 0)
(0.0253156 0.100243 0)
(0.00826188 0.0969503 0)
(3 -1.27925e-16 0)
(3 1.83881e-16 0)
(3 -1.0205e-16 0)
(3 -1.5878e-16 0)
(3 -8.50207e-17 0)
(3 -4.60652e-16 0)
(3 -4.40538e-16 0)
(3 -5.91733e-16 0)
(3 -8.80901e-16 0)
(3 -1.13448e-15 0)
(3 -7.5007e-16 0)
(3 -1.13718e-15 0)
(3 -3.07513e-16 0)
(3 -2.81121e-16 0)
(3 -2.3644e-16 0)
(3 4.62095e-16 0)
(3 1.1492e-15 0)
(3 1.43605e-15 0)
(3 4.64662e-16 0)
(3 2.65719e-16 0)
(3 8.70886e-16 0)
(3 -2.5817e-17 0)
(3 3.18607e-16 0)
(3 3.11875e-16 0)
(3 3.11218e-16 0)
(3 3.37341e-16 0)
(3 1.94123e-17 0)
(3 -7.09028e-16 0)
(3 -4.07172e-16 0)
(3 -1.25682e-16 0)
(3 -6.44797e-16 0)
(3 -5.56589e-16 0)
(3 1.2564e-16 0)
(3 7.79031e-16 0)
(3 4.85599e-16 0)
(3 1.78888e-16 0)
(3 2.08684e-16 0)
(3 -6.2424e-16 0)
(3 -1.05154e-15 0)
(3 -1.97001e-15 0)
(3 -2.13344e-15 0)
(3 -1.50222e-15 0)
(3 -4.35168e-16 0)
(3 -3.26727e-16 0)
(3 -2.35676e-16 0)
(3 -2.68515e-16 0)
(3 4.8627e-16 0)
(3 8.42786e-16 0)
(3 1.13185e-15 0)
(3 1.44544e-15 0)
(3 3.69766e-16 0)
(3 7.61706e-16 0)
(3 -1.42104e-17 0)
(3 7.91498e-17 0)
(3 -6.45047e-17 0)
(3 -1.18334e-16 0)
(3 5.57923e-17 0)
(3 2.61625e-16 0)
(3 -4.55692e-16 0)
(3 -6.97364e-16 0)
(3 2.54087e-14 0)
(3 1.79585e-12 0)
(3 8.82155e-11 0)
(3 7.33728e-09 0)
(2.99999 2.25624e-07 0)
(2.99952 3.1811e-05 0)
(2.96907 0.00109157 0)
(1.24049 0.107105 0)
(0.674239 0.129726 0)
(0.524722 0.153181 0)
(0.481186 0.137371 0)
(0.45272 0.129211 0)
(0.435156 0.127261 0)
(0.428484 0.130584 0)
(0.425897 0.136156 0)
(0.41814 0.140629 0)
(0.400216 0.143617 0)
(0.374137 0.144912 0)
(0.343912 0.145775 0)
(0.314017 0.147602 0)
(0.289337 0.15056 0)
(0.268374 0.154301 0)
(0.250801 0.157585 0)
(0.233781 0.15656 0)
(0.214587 0.149737 0)
(0.192741 0.138742 0)
(0.170313 0.126795 0)
(0.14866 0.117726 0)
(0.129454 0.113575 0)
(0.112143 0.113627 0)
(0.0960137 0.114973 0)
(0.0793156 0.117035 0)
(0.0620818 0.118848 0)
(0.0437397 0.119608 0)
(0.0249317 0.118615 0)
(0.00732509 0.115067 0)
(3 3.62013e-17 0)
(3 4.66157e-17 0)
(3 -3.46814e-16 0)
(3 8.93714e-18 0)
(3 9.64474e-16 0)
(3 1.08329e-15 0)
(3 1.22446e-15 0)
(3 1.06326e-15 0)
(3 3.41276e-16 0)
(3 -4.05033e-16 0)
(3 -1.93585e-15 0)
(3 -1.82148e-15 0)
(3 -1.31207e-15 0)
(3 -3.42279e-16 0)
(3 -5.9928e-16 0)
(3 -7.27075e-16 0)
(3 -1.31553e-15 0)
(3 -1.50729e-15 0)
(3 -1.42557e-15 0)
(3 -4.75358e-16 0)
(3 1.34069e-16 0)
(3 4.58531e-16 0)
(3 1.43995e-15 0)
(3 2.08349e-15 0)
(3 2.10923e-15 0)
(3 1.25751e-15 0)
(3 -6.04454e-16 0)
(3 -8.75155e-16 0)
(3 -1.22563e-15 0)
(3 -9.14039e-16 0)
(3 -1.03319e-15 0)
(3 -1.63313e-15 0)
(3 -1.53272e-15 0)
(3 -8.53236e-16 0)
(3 1.4259e-16 0)
(3 -3.65185e-17 0)
(3 -3.5173e-17 0)
(3 -1.0589e-15 0)
(3 -8.94985e-16 0)
(3 -1.37278e-15 0)
(3 -2.01137e-15 0)
(3 -2.33484e-15 0)
(3 -2.25249e-15 0)
(3 -9.04667e-16 0)
(3 -3.28549e-16 0)
(3 -3.59178e-16 0)
(3 4.37536e-16 0)
(3 1.27865e-16 0)
(3 8.70407e-18 0)
(3 -4.93765e-16 0)
(3 -1.40705e-15 0)
(3 -1.18004e-15 0)
(3 -1.21312e-15 0)
(3 -1.44742e-15 0)
(3 -5.54121e-16 0)
(3 -1.07518e-15 0)
(3 -1.50254e-15 0)
(3 -2.35937e-15 0)
(3 -2.08321e-15 0)
(3 -7.73298e-16 0)
(3 2.83915e-14 0)
(3 1.993e-12 0)
(3 1.082e-10 0)
(3 8.22634e-09 0)
(2.99999 3.00448e-07 0)
(2.99956 3.4476e-05 0)
(2.97162 0.000448756 0)
(1.32144 0.132688 0)
(0.680691 0.147178 0)
(0.516978 0.170911 0)
(0.477724 0.156013 0)
(0.455327 0.148419 0)
(0.441721 0.147723 0)
(0.438633 0.152435 0)
(0.43538 0.158837 0)
(0.424847 0.163401 0)
(0.40369 0.166337 0)
(0.376153 0.167593 0)
(0.345155 0.168227 0)
(0.31593 0.170062 0)
(0.292143 0.173265 0)
(0.272038 0.177483 0)
(0.255021 0.181109 0)
(0.237763 0.180076 0)
(0.217728 0.173022 0)
(0.19531 0.161393 0)
(0.172359 0.148332 0)
(0.150578 0.137715 0)
(0.131272 0.13223 0)
(0.113947 0.131868 0)
(0.0976556 0.133411 0)
(0.080635 0.135611 0)
(0.0627114 0.137525 0)
(0.0442102 0.138195 0)
(0.0245568 0.137397 0)
(0.00671671 0.133787 0)
(3 2.08342e-16 0)
(3 1.90162e-16 0)
(3 3.43058e-16 0)
(3 6.74513e-16 0)
(3 2.54579e-16 0)
(3 6.42225e-16 0)
(3 8.80082e-16 0)
(3 8.33333e-16 0)
(3 1.07761e-15 0)
(3 1.32024e-15 0)
(3 7.89975e-16 0)
(3 1.1633e-16 0)
(3 -3.67994e-16 0)
(3 -5.91795e-16 0)
(3 4.88008e-16 0)
(3 1.1079e-15 0)
(3 1.05213e-15 0)
(3 8.03329e-16 0)
(3 1.63571e-15 0)
(3 9.76447e-16 0)
(3 -2.74091e-16 0)
(3 -1.36293e-16 0)
(3 1.19431e-17 0)
(3 3.56586e-16 0)
(3 3.84625e-16 0)
(3 5.50151e-17 0)
(3 -2.12435e-17 0)
(3 2.38423e-16 0)
(3 -1.17747e-16 0)
(3 7.64987e-18 0)
(3 -3.78911e-16 0)
(3 -3.23067e-16 0)
(3 -7.34429e-16 0)
(3 -1.64439e-15 0)
(3 -2.17371e-15 0)
(3 -2.29657e-15 0)
(3 -2.56331e-15 0)
(3 -2.09695e-15 0)
(3 -1.03737e-15 0)
(3 -1.92282e-16 0)
(3 -6.57675e-16 0)
(3 -1.45474e-16 0)
(3 1.27935e-16 0)
(3 7.84445e-16 0)
(3 9.92761e-16 0)
(3 1.94399e-16 0)
(3 -3.94382e-16 0)
(3 -1.01363e-15 0)
(3 -2.16376e-15 0)
(3 -2.4248e-15 0)
(3 -2.46488e-15 0)
(3 -2.33028e-15 0)
(3 -1.58458e-15 0)
(3 -1.09527e-15 0)
(3 -5.1536e-16 0)
(3 -6.63788e-16 0)
(3 -3.71858e-16 0)
(3 -9.18549e-17 0)
(3 2.45505e-16 0)
(3 7.85045e-16 0)
(3 3.35864e-14 0)
(3 2.12349e-12 0)
(3 1.25383e-10 0)
(3 8.88783e-09 0)
(2.99999 3.92639e-07 0)
(2.99961 3.86844e-05 0)
(2.97447 0.000847708 0)
(1.42034 0.158606 0)
(0.686412 0.160779 0)
(0.512196 0.187743 0)
(0.477314 0.174344 0)
(0.460111 0.167921 0)
(0.451418 0.168602 0)
(0.450329 0.174812 0)
(0.444836 0.182331 0)
(0.430313 0.186664 0)
(0.406075 0.189183 0)
(0.37726 0.190132 0)
(0.346295 0.19058 0)
(0.318654 0.192537 0)
(0.296045 0.196034 0)
(0.27709 0.200731 0)
(0.260487 0.20461 0)
(0.242715 0.203587 0)
(0.221708 0.196419 0)
(0.198694 0.18429 0)
(0.175244 0.170312 0)
(0.153229 0.158327 0)
(0.133751 0.151437 0)
(0.116133 0.150496 0)
(0.0993992 0.152054 0)
(0.0819279 0.154345 0)
(0.0633529 0.156357 0)
(0.0447985 0.157156 0)
(0.0247266 0.156485 0)
(0.006258 0.153168 0)
(3 -2.25438e-17 0)
(3 -1.88823e-16 0)
(3 1.99137e-16 0)
(3 -9.74411e-17 0)
(3 -2.91676e-16 0)
(3 -9.26519e-17 0)
(3 1.31081e-16 0)
(3 6.22016e-16 0)
(3 8.56478e-16 0)
(3 8.86269e-16 0)
(3 1.34831e-15 0)
(3 9.06795e-16 0)
(3 5.99309e-16 0)
(3 8.31355e-16 0)
(3 8.07633e-16 0)
(3 6.40785e-16 0)
(3 1.1335e-15 0)
(3 6.12787e-16 0)
(3 1.4e-15 0)
(3 1.55683e-15 0)
(3 8.08447e-16 0)
(3 1.73524e-16 0)
(3 -6.47929e-16 0)
(3 -4.03996e-16 0)
(3 -1.27961e-17 0)
(3 4.70967e-16 0)
(3 1.18528e-15 0)
(3 1.48354e-15 0)
(3 1.84151e-15 0)
(3 1.38122e-15 0)
(3 1.36859e-15 0)
(3 8.20569e-16 0)
(3 -2.08414e-16 0)
(3 -2.20236e-15 0)
(3 -2.39767e-15 0)
(3 -2.3968e-15 0)
(3 -2.15191e-15 0)
(3 -9.37536e-16 0)
(3 -1.36364e-15 0)
(3 -1.76742e-15 0)
(3 -1.55671e-15 0)
(3 -1.47353e-15 0)
(3 -8.757e-16 0)
(3 -1.04438e-15 0)
(3 -1.80268e-15 0)
(3 -1.63311e-15 0)
(3 -1.39256e-15 0)
(3 -8.64098e-16 0)
(3 -8.99525e-16 0)
(3 -1.8213e-15 0)
(3 -1.46929e-15 0)
(3 -2.11065e-15 0)
(3 -1.67953e-15 0)
(3 -9.67603e-16 0)
(3 -4.99798e-16 0)
(3 -1.93467e-16 0)
(3 2.81867e-16 0)
(3 3.40846e-16 0)
(3 -5.86136e-16 0)
(3 -9.57896e-16 0)
(3 3.21738e-14 0)
(3 2.14189e-12 0)
(3 1.3623e-10 0)
(3 9.15971e-09 0)
(3 4.77572e-07 0)
(2.99967 4.05161e-05 0)
(2.97783 0.00121228 0)
(1.54039 0.18347 0)
(0.694632 0.17007 0)
(0.509695 0.204404 0)
(0.480453 0.192819 0)
(0.468097 0.187806 0)
(0.4638 0.190251 0)
(0.462473 0.198773 0)
(0.453093 0.207081 0)
(0.433729 0.210603 0)
(0.407379 0.211894 0)
(0.377737 0.212066 0)
(0.34793 0.212444 0)
(0.322706 0.214755 0)
(0.301425 0.218788 0)
(0.283529 0.224091 0)
(0.266879 0.228229 0)
(0.248139 0.227293 0)
(0.22603 0.220084 0)
(0.202362 0.207638 0)
(0.178415 0.192964 0)
(0.156153 0.179743 0)
(0.136431 0.171382 0)
(0.118235 0.169558 0)
(0.101007 0.170955 0)
(0.0829535 0.173304 0)
(0.0640106 0.175442 0)
(0.0451273 0.176524 0)
(0.0257706 0.175541 0)
(0.00608106 0.173674 0)
(3 -1.26062e-16 0)
(3 -2.50405e-16 0)
(3 5.23014e-18 0)
(3 -6.60834e-17 0)
(3 3.1635e-16 0)
(3 1.17958e-15 0)
(3 7.6836e-16 0)
(3 1.01535e-15 0)
(3 1.32568e-16 0)
(3 -7.96886e-16 0)
(3 -4.67135e-16 0)
(3 7.53991e-16 0)
(3 7.06707e-16 0)
(3 1.02695e-15 0)
(3 4.71759e-16 0)
(3 2.53529e-17 0)
(3 -1.6586e-16 0)
(3 2.1495e-16 0)
(3 6.00319e-16 0)
(3 1.79986e-15 0)
(3 2.01134e-15 0)
(3 1.95468e-15 0)
(3 1.26163e-15 0)
(3 4.58788e-16 0)
(3 1.3949e-16 0)
(3 3.89112e-16 0)
(3 1.22301e-15 0)
(3 1.34145e-15 0)
(3 1.59571e-15 0)
(3 1.60028e-15 0)
(3 2.21928e-15 0)
(3 8.81622e-16 0)
(3 -1.54849e-16 0)
(3 -1.37234e-15 0)
(3 -1.2634e-15 0)
(3 -2.10278e-15 0)
(3 -1.83346e-15 0)
(3 -1.67057e-15 0)
(3 -1.42942e-15 0)
(3 -1.32571e-15 0)
(3 -1.43706e-15 0)
(3 -1.77321e-15 0)
(3 -2.21828e-15 0)
(3 -2.73374e-15 0)
(3 -3.00236e-15 0)
(3 -2.47368e-15 0)
(3 -1.77992e-15 0)
(3 -3.44844e-16 0)
(3 2.744e-16 0)
(3 4.57233e-16 0)
(3 7.15831e-17 0)
(3 1.24618e-16 0)
(3 -3.20162e-16 0)
(3 -2.31602e-16 0)
(3 -7.00648e-16 0)
(3 -5.0006e-16 0)
(3 -2.97895e-16 0)
(3 -9.72533e-16 0)
(3 -8.98622e-16 0)
(3 -1.48739e-15 0)
(3 2.8408e-14 0)
(3 2.00651e-12 0)
(3 1.35987e-10 0)
(3 8.92525e-09 0)
(3 5.37627e-07 0)
(2.99973 4.01895e-05 0)
(2.98166 0.00161835 0)
(1.68664 0.203333 0)
(0.708243 0.176534 0)
(0.508061 0.22097 0)
(0.486608 0.21217 0)
(0.480353 0.20872 0)
(0.478281 0.213383 0)
(0.473775 0.224437 0)
(0.459484 0.2324 0)
(0.435899 0.234536 0)
(0.408651 0.233854 0)
(0.379455 0.232886 0)
(0.35196 0.233491 0)
(0.329125 0.236597 0)
(0.308993 0.241634 0)
(0.291498 0.247774 0)
(0.274073 0.25221 0)
(0.253954 0.25133 0)
(0.230816 0.244081 0)
(0.20668 0.231432 0)
(0.182501 0.216194 0)
(0.160296 0.201801 0)
(0.140261 0.191946 0)
(0.121466 0.188938 0)
(0.103596 0.190088 0)
(0.084971 0.192539 0)
(0.0656104 0.194894 0)
(0.0461862 0.196578 0)
(0.0277874 0.195149 0)
(0.00754155 0.194367 0)
(3 -3.53466e-16 0)
(3 -3.11513e-16 0)
(3 2.41672e-16 0)
(3 3.86502e-16 0)
(3 -1.24251e-16 0)
(3 -7.34418e-16 0)
(3 -1.12405e-15 0)
(3 -1.58732e-15 0)
(3 -3.94298e-16 0)
(3 6.2093e-16 0)
(3 7.25975e-16 0)
(3 9.81393e-16 0)
(3 1.66874e-15 0)
(3 1.40281e-15 0)
(3 1.59231e-15 0)
(3 9.91961e-16 0)
(3 5.87855e-16 0)
(3 9.96249e-16 0)
(3 4.51848e-16 0)
(3 9.20331e-16 0)
(3 1.98817e-15 0)
(3 1.841e-15 0)
(3 2.25145e-15 0)
(3 1.9616e-15 0)
(3 1.95599e-15 0)
(3 2.46896e-15 0)
(3 3.01766e-15 0)
(3 3.61565e-15 0)
(3 3.14921e-15 0)
(3 2.99882e-15 0)
(3 2.07065e-15 0)
(3 1.01604e-15 0)
(3 -1.32173e-16 0)
(3 -8.27173e-16 0)
(3 -1.5539e-15 0)
(3 -1.66679e-15 0)
(3 -1.88524e-15 0)
(3 -1.41171e-15 0)
(3 -9.47806e-16 0)
(3 -1.04747e-15 0)
(3 -1.23063e-15 0)
(3 -1.82987e-15 0)
(3 -2.03994e-15 0)
(3 -2.13725e-15 0)
(3 -1.69549e-15 0)
(3 -6.78558e-16 0)
(3 -7.67498e-16 0)
(3 -6.87367e-16 0)
(3 -7.35185e-16 0)
(3 1.62966e-16 0)
(3 1.26139e-15 0)
(3 1.28366e-15 0)
(3 2.85e-16 0)
(3 -1.01284e-15 0)
(3 -1.85739e-15 0)
(3 -2.23162e-15 0)
(3 -2.03521e-15 0)
(3 -1.64088e-15 0)
(3 -1.27424e-15 0)
(3 -1.39e-15 0)
(3 2.3004e-14 0)
(3 1.71119e-12 0)
(3 1.22122e-10 0)
(3 8.04576e-09 0)
(3 5.43247e-07 0)
(2.9998 3.72849e-05 0)
(2.98583 0.00196331 0)
(1.86437 0.213929 0)
(0.731128 0.179116 0)
(0.510383 0.238129 0)
(0.497169 0.231952 0)
(0.495268 0.231339 0)
(0.492506 0.238958 0)
(0.482699 0.251384 0)
(0.463445 0.257653 0)
(0.438484 0.257225 0)
(0.411282 0.254217 0)
(0.383502 0.252363 0)
(0.358717 0.253879 0)
(0.337234 0.258578 0)
(0.317821 0.265267 0)
(0.300005 0.272272 0)
(0.281309 0.276758 0)
(0.259822 0.275662 0)
(0.236168 0.26827 0)
(0.211757 0.255539 0)
(0.187542 0.239864 0)
(0.16541 0.224479 0)
(0.144725 0.21322 0)
(0.125148 0.208869 0)
(0.106368 0.209694 0)
(0.0872193 0.212382 0)
(0.0672457 0.215105 0)
(0.0471815 0.217719 0)
(0.0300457 0.216588 0)
(0.00926402 0.213611 0)
(3 1.12629e-16 0)
(3 1.90361e-16 0)
(3 1.67961e-16 0)
(3 -7.20213e-16 0)
(3 -8.76253e-16 0)
(3 -1.40767e-15 0)
(3 -1.19906e-15 0)
(3 -8.29919e-16 0)
(3 -6.53885e-16 0)
(3 3.75769e-16 0)
(3 -2.23976e-16 0)
(3 -1.89427e-16 0)
(3 2.46746e-17 0)
(3 6.0724e-17 0)
(3 3.35377e-16 0)
(3 5.44974e-16 0)
(3 8.68561e-16 0)
(3 8.80603e-16 0)
(3 1.44349e-15 0)
(3 1.87276e-15 0)
(3 3.1583e-15 0)
(3 2.69277e-15 0)
(3 2.40591e-15 0)
(3 2.04215e-15 0)
(3 1.88129e-15 0)
(3 2.51582e-15 0)
(3 1.94375e-15 0)
(3 1.79667e-15 0)
(3 1.64032e-15 0)
(3 8.59426e-16 0)
(3 6.55955e-16 0)
(3 -4.23432e-16 0)
(3 -6.56634e-16 0)
(3 -5.0306e-16 0)
(3 -1.55321e-15 0)
(3 -1.13492e-15 0)
(3 -3.38156e-16 0)
(3 2.05905e-16 0)
(3 -2.76553e-16 0)
(3 -1.30378e-15 0)
(3 -1.3526e-15 0)
(3 -1.76871e-15 0)
(3 -2.41176e-15 0)
(3 -1.5549e-15 0)
(3 -1.49635e-15 0)
(3 -1.74523e-15 0)
(3 -1.38052e-15 0)
(3 -2.10704e-15 0)
(3 -2.02255e-15 0)
(3 -1.68624e-15 0)
(3 3.46339e-16 0)
(3 3.1459e-16 0)
(3 1.66689e-16 0)
(3 -5.3777e-16 0)
(3 -3.55453e-16 0)
(3 -5.90857e-16 0)
(3 -1.93348e-15 0)
(3 -1.55079e-15 0)
(3 -1.38558e-15 0)
(3 -2.28996e-16 0)
(3 1.78845e-14 0)
(3 1.30512e-12 0)
(3 9.71598e-11 0)
(3 6.55904e-09 0)
(3 4.81116e-07 0)
(2.99986 3.15373e-05 0)
(2.99003 0.0020657 0)
(2.07737 0.208276 0)
(0.769714 0.177417 0)
(0.519737 0.258579 0)
(0.511288 0.253285 0)
(0.511305 0.25614 0)
(0.504684 0.26657 0)
(0.489243 0.277568 0)
(0.467026 0.280696 0)
(0.442509 0.277526 0)
(0.415529 0.272974 0)
(0.389091 0.271422 0)
(0.366328 0.27484 0)
(0.34546 0.281684 0)
(0.326614 0.290152 0)
(0.308336 0.297536 0)
(0.288536 0.301504 0)
(0.266072 0.299949 0)
(0.242167 0.292544 0)
(0.217472 0.279934 0)
(0.193324 0.264039 0)
(0.17098 0.247962 0)
(0.149606 0.235377 0)
(0.129177 0.229669 0)
(0.10942 0.229953 0)
(0.0896289 0.232994 0)
(0.069486 0.236403 0)
(0.048978 0.239681 0)
(0.0312779 0.239073 0)
(0.00946339 0.232709 0)
(3 2.11308e-18 0)
(3 3.60745e-16 0)
(3 -5.03945e-17 0)
(3 -4.69836e-16 0)
(3 -1.09167e-15 0)
(3 -1.0523e-15 0)
(3 -7.14768e-16 0)
(3 -3.14296e-16 0)
(3 -9.44672e-16 0)
(3 -9.3292e-16 0)
(3 -9.67233e-16 0)
(3 -4.85162e-16 0)
(3 -1.70097e-16 0)
(3 8.19227e-17 0)
(3 -3.38174e-16 0)
(3 -2.81027e-16 0)
(3 -2.69486e-17 0)
(3 6.08812e-16 0)
(3 1.18707e-15 0)
(3 7.1015e-16 0)
(3 1.25487e-15 0)
(3 1.57562e-15 0)
(3 1.29974e-15 0)
(3 1.00578e-15 0)
(3 2.6436e-16 0)
(3 -3.43047e-16 0)
(3 -7.13137e-16 0)
(3 -6.90419e-16 0)
(3 1.92439e-16 0)
(3 3.14575e-16 0)
(3 9.10947e-16 0)
(3 2.29234e-16 0)
(3 6.62229e-16 0)
(3 6.02421e-16 0)
(3 1.08974e-15 0)
(3 1.06971e-15 0)
(3 1.60149e-15 0)
(3 6.11321e-16 0)
(3 7.96521e-16 0)
(3 7.01331e-16 0)
(3 1.98946e-16 0)
(3 -3.53735e-16 0)
(3 -1.48884e-15 0)
(3 -2.07358e-15 0)
(3 -1.87427e-15 0)
(3 -2.71712e-15 0)
(3 -2.69182e-15 0)
(3 -2.54453e-15 0)
(3 -1.72713e-15 0)
(3 -7.09119e-16 0)
(3 -1.24944e-16 0)
(3 6.29304e-16 0)
(3 1.95351e-15 0)
(3 2.98198e-15 0)
(3 2.78456e-15 0)
(3 1.61461e-15 0)
(3 3.07476e-16 0)
(3 -1.44794e-15 0)
(3 -2.32828e-15 0)
(3 -2.37845e-15 0)
(3 8.44923e-15 0)
(3 8.52336e-13 0)
(3 6.67427e-11 0)
(3 4.73499e-09 0)
(3 3.69685e-07 0)
(2.99992 2.39098e-05 0)
(2.99377 0.00183157 0)
(2.31818 0.180493 0)
(0.83379 0.173987 0)
(0.538207 0.287203 0)
(0.527573 0.275622 0)
(0.52614 0.28123 0)
(0.515082 0.29324 0)
(0.494815 0.301397 0)
(0.471766 0.300594 0)
(0.446373 0.296165 0)
(0.419402 0.29184 0)
(0.394509 0.291776 0)
(0.372963 0.297127 0)
(0.353773 0.305869 0)
(0.335996 0.315492 0)
(0.317431 0.322701 0)
(0.29655 0.325932 0)
(0.27313 0.324172 0)
(0.248541 0.317133 0)
(0.223512 0.304794 0)
(0.19966 0.288851 0)
(0.176744 0.272347 0)
(0.154859 0.258608 0)
(0.133526 0.251623 0)
(0.11263 0.25116 0)
(0.0921648 0.254527 0)
(0.0720638 0.25868 0)
(0.0507041 0.261914 0)
(0.0311595 0.261384 0)
(0.00817617 0.25294 0)
(3 1.98915e-16 0)
(3 -7.85705e-16 0)
(3 -7.68427e-16 0)
(3 1.58291e-16 0)
(3 5.89937e-16 0)
(3 3.01425e-16 0)
(3 -2.6527e-16 0)
(3 -8.89914e-16 0)
(3 -6.57132e-16 0)
(3 -1.55213e-15 0)
(3 -1.10226e-15 0)
(3 -1.88576e-15 0)
(3 -5.24761e-16 0)
(3 -8.17348e-16 0)
(3 -6.58308e-16 0)
(3 -1.45531e-15 0)
(3 -1.99198e-16 0)
(3 9.69795e-16 0)
(3 1.29644e-15 0)
(3 8.89954e-16 0)
(3 8.12787e-16 0)
(3 1.73496e-15 0)
(3 1.91062e-15 0)
(3 1.89942e-15 0)
(3 1.66574e-15 0)
(3 7.71113e-16 0)
(3 1.07213e-15 0)
(3 6.44785e-16 0)
(3 3.75345e-16 0)
(3 -6.19119e-16 0)
(3 4.00993e-16 0)
(3 3.16505e-16 0)
(3 -1.88607e-16 0)
(3 4.52478e-16 0)
(3 1.30132e-15 0)
(3 2.56853e-15 0)
(3 1.91753e-15 0)
(3 1.55953e-15 0)
(3 1.33812e-15 0)
(3 1.46189e-15 0)
(3 8.38234e-16 0)
(3 5.47226e-16 0)
(3 -3.39616e-16 0)
(3 -9.93269e-16 0)
(3 -1.7514e-15 0)
(3 -2.7399e-15 0)
(3 -3.00853e-15 0)
(3 -2.51433e-15 0)
(3 -1.99866e-15 0)
(3 -2.32851e-15 0)
(3 -2.44209e-15 0)
(3 -3.06572e-15 0)
(3 -1.23392e-15 0)
(3 -6.93698e-17 0)
(3 5.75018e-17 0)
(3 6.24207e-16 0)
(3 7.18717e-16 0)
(3 6.8911e-16 0)
(3 -5.89413e-16 0)
(3 -2.04235e-15 0)
(3 2.38708e-15 0)
(3 4.25096e-13 0)
(3 3.59868e-11 0)
(3 2.80038e-09 0)
(3 2.35595e-07 0)
(2.99996 1.6135e-05 0)
(2.99665 0.0014147 0)
(2.55704 0.13925 0)
(0.933656 0.172581 0)
(0.564063 0.319771 0)
(0.544185 0.29762 0)
(0.538657 0.304103 0)
(0.52344 0.31698 0)
(0.50016 0.322363 0)
(0.475722 0.318868 0)
(0.449371 0.314474 0)
(0.423388 0.311872 0)
(0.400581 0.313315 0)
(0.380794 0.319881 0)
(0.36387 0.329953 0)
(0.346912 0.340246 0)
(0.327463 0.347384 0)
(0.304875 0.350377 0)
(0.280509 0.348797 0)
(0.255111 0.342182 0)
(0.23019 0.330054 0)
(0.206626 0.314275 0)
(0.183456 0.29752 0)
(0.161043 0.283048 0)
(0.138836 0.274772 0)
(0.116645 0.273451 0)
(0.0957639 0.276878 0)
(0.0750568 0.281402 0)
(0.0526157 0.284374 0)
(0.0307486 0.283927 0)
(0.00677017 0.274904 0)
(3 6.48974e-17 0)
(3 -1.09511e-16 0)
(3 -2.6625e-16 0)
(3 -1.06912e-17 0)
(3 1.10702e-15 0)
(3 9.32138e-16 0)
(3 1.2544e-16 0)
(3 -7.87193e-16 0)
(3 -1.32598e-15 0)
(3 -1.55809e-15 0)
(3 -1.90649e-15 0)
(3 -2.0402e-15 0)
(3 -1.92625e-15 0)
(3 -1.33723e-15 0)
(3 -5.74229e-16 0)
(3 5.80148e-16 0)
(3 1.12736e-15 0)
(3 1.33693e-15 0)
(3 1.35722e-15 0)
(3 1.41868e-15 0)
(3 9.02721e-16 0)
(3 8.25736e-17 0)
(3 -2.25159e-17 0)
(3 -1.88535e-16 0)
(3 2.92932e-16 0)
(3 3.46244e-16 0)
(3 1.30844e-15 0)
(3 1.13302e-15 0)
(3 4.36405e-16 0)
(3 -1.06293e-15 0)
(3 -1.52971e-15 0)
(3 -1.01299e-15 0)
(3 -1.73263e-16 0)
(3 1.20564e-15 0)
(3 2.49086e-15 0)
(3 2.7237e-15 0)
(3 2.08124e-15 0)
(3 1.41547e-15 0)
(3 9.3333e-16 0)
(3 4.88217e-16 0)
(3 4.92013e-16 0)
(3 8.25913e-16 0)