/*--------------------------------*- C++ -*----------------------------------*\
| =========                 |                                                 |
| \\      /  F ield         | OpenFOAM: The Open Source CFD Toolbox           |
|  \\    /   O peration     | Version:  v1812                                 |
|   \\  /    A nd           | Web:      www.OpenFOAM.com                      |
|    \\/     M anipulation  |                                                 |
\*---------------------------------------------------------------------------*/
FoamFile
{
    version     2.0;
    format      ascii;
    class       volScalarField;
    location    "0.7";
    object      p;
}
// * * * * * * * * * * * * * * * * * * * * * * * * * * * * * * * * * * * * * //

dimensions      [1 -1 -2 0 0 0 0];


internalField   nonuniform List<scalar> 
64512
(
1
1
1
1
1
1
1
1
1
1
1
1
1
1
1
1
1
1
1
1
1
1
1
1
1
1
1
1
1
1
1
1
1
1
1
1
1
1
1
1
1
1
1
1
1
1
1
1
1
1
1
1
1
1
1
1.00009
1.00618
1.42663
8.47091
11.0676
11.0531
11.1397
11.2346
11.3427
11.396
11.4131
11.4476
11.481
11.5343
11.5832
11.6445
11.723
11.801
11.8607
11.9009
11.9287
11.9505
11.9722
11.9994
12.0346
12.0807
12.1355
12.1817
12.2259
12.2638
12.2971
12.3243
12.3482
12.3687
12.3842
12.3886
12.381
12.367
12.3454
12.3284
12.3137
1
1
1
1
1
1
1
1
1
1
1
1
1
1
1
1
1
1
1
1
1
1
1
1
1
1
1
1
1
1
1
1
1
1
1
1
1
1
1
1
1
1
1
1
1
1
1
1
1
1
1
1
1
1
1
1.00014
1.0106
1.7994
8.51841
11.0006
11.1245
11.2651
11.3648
11.4418
11.4486
11.4645
11.4791
11.518
11.565
11.6198
11.6911
11.7704
11.8439
11.8992
11.9365
11.9602
11.9764
11.9949
12.0222
12.0557
12.0886
12.1438
12.1969
12.2467
12.2883
12.3224
12.3473
12.3672
12.3835
12.3955
12.398
12.3895
12.3754
12.3537
12.3387
12.3224
1
1
1
1
1
1
1
1
1
1
1
1
1
1
1
1
1
1
1
1
1
1
1
1
1
1
1
1
1
1
1
1
1
1
1
1
1
1
1
1
1
1
1
1
1
1
1
1
1
1
1
1
1
1
1
1.00008
1.00477
1.26042
7.97956
11.096
11.1313
11.1346
11.2318
11.3737
11.4294
11.5212
11.5676
11.5961
11.6259
11.6799
11.7465
11.8156
11.8824
11.9423
11.9884
12.0197
12.0416
12.0618
12.0856
12.1142
12.1548
12.199
12.24
12.2774
12.3078
12.3305
12.3519
12.3724
12.3901
12.4031
12.4061
12.3978
12.3842
12.3667
12.3494
12.3354
1
1
1
1
1
1
1
1
1
1
1
1
1
1
1
1
1
1
1
1
1
1
1
1
1
1
1
1
1
1
1
1
1
1
1
1
1
1
1
1
1
1
1
1
1
1
1
1
1
1
1
1
1
1
1
1.00016
1.01181
1.88951
8.39909
10.8915
11.0549
11.1833
11.3092
11.3896
11.3786
11.3717
11.3796
11.4317
11.4768
11.5375
11.6155
11.7008
11.7798
11.8409
11.8831
11.9119
11.9329
11.9531
11.9816
12.0182
12.0662
12.1175
12.1667
12.213
12.2518
12.2846
12.3106
12.3331
12.3539
12.3713
12.3795
12.375
12.364
12.347
12.3331
12.3181
1
1
1
1
1
1
1
1
1
1
1
1
1
1
1
1
1
1
1
1
1
1
1
1
1
1
1
1
1
1
1
1
1
1
1
1
1
1
1
1
1
1
1
1
1
1
1
1
1
1
1
1
1
1
1
1.00006
1.00404
1.21679
7.85091
11.2153
11.2158
11.1522
11.1979
11.3097
11.343
11.4432
11.5002
11.5278
11.5723
11.628
11.6878
11.746
11.8018
11.8372
11.8783
11.9055
11.922
11.9407
11.9673
12.0066
12.0562
12.1084
12.1567
12.2015
12.2386
12.269
12.2947
12.3181
12.3403
12.3586
12.3675
12.3642
12.3548
12.3401
12.3287
12.3127
1
1
1
1
1
1
1
1
1
1
1
1
1
1
1
1
1
1
1
1
1
1
1
1
1
1
1
1
1
1
1
1
1
1
1
1
1
1
1
1
1
1
1
1
1
1
1
1
1
1
1
1
1
1
1
1.00003
1.002
1.12596
7.60648
11.1843
11.1328
11.0909
11.1644
11.2825
11.3316
11.4232
11.4622
11.4944
11.5253
11.5851
11.6536
11.732
11.8137
11.8943
11.9254
11.9472
11.95
11.9574
11.9742
12.006
12.0483
12.0934
12.1391
12.1819
12.2183
12.2499
12.2771
12.3014
12.3243
12.3427
12.3516
12.3485
12.3399
12.3266
12.3181
12.3025
1
1
1
1
1
1
1
1
1
1
1
1
1
1
1
1
1
1
1
1
1
1
1
1
1
1
1
1
1
1
1
1
1
1
1
1
1
1
1
1
1
1
1
1
1
1
1
1
1
1
1
1
1
1
1
1.00003
1.00164
1.1062
7.1043
11.1464
11.1553
11.1541
11.2626
11.3757
11.398
11.4607
11.4902
11.5216
11.5502
11.6049
11.6516
11.719
11.7884
11.8461
11.8882
11.9164
11.9338
11.9524
11.9762
12.01
12.0514
12.0945
12.1362
12.1751
12.2081
12.2349
12.2586
12.2832
12.3061
12.3241
12.332
12.3283
12.3206
12.3075
12.3007
12.2875
1
1
1
1
1
1
1
1
1
1
1
1
1
1
1
1
1
1
1
1
1
1
1
1
1
1
1
1
1
1
1
1
1
1
1
1
1
1
1
1
1
1
1
1
1
1
1
1
1
1
1
1
1
1
1
1.00002
1.00156
1.10087
6.86984
10.999
11.0728
11.1001
11.2052
11.3016
11.3048
11.3595
11.4003
11.4274
11.4818
11.5457
11.6137
11.6875
11.7592
11.8205
11.8644
11.9001
11.9262
11.9488
11.9706
11.9987
12.0346
12.0767
12.1194
12.1598
12.1936
12.2217
12.2448
12.2678
12.2886
12.3046
12.3107
12.3056
12.2976
12.2834
12.2754
12.2687
1
1
1
1
1
1
1
1
1
1
1
1
1
1
1
1
1
1
1
1
1
1
1
1
1
1
1
1
1
1
1
1
1
1
1
1
1
1
1
1
1
1
1
1
1
1
1
1
1
1
1
1
1
1
1
1.00002
1.00145
1.09389
6.49177
10.8938
11.0476
11.0849
11.1798
11.267
11.2843
11.3347
11.3908
11.4158
11.4783
11.5276
11.5941
11.6612
11.7268
11.7816
11.8251
11.8609
11.8883
11.916
11.9456
11.9817
12.0223
12.0674
12.1121
12.1518
12.184
12.2105
12.2321
12.2531
12.2712
12.2842
12.2883
12.2819
12.2734
12.2561
12.2477
12.2544
1
1
1
1
1
1
1
1
1
1
1
1
1
1
1
1
1
1
1
1
1
1
1
1
1
1
1
1
1
1
1
1
1
1
1
1
1
1
1
1
1
1
1
1
1
1
1
1
1
1
1
1
1
1
1
1.00002
1.00135
1.08721
6.14698
10.7762
11.0027
11.0715
11.1439
11.2371
11.2586
11.3426
11.4187
11.4318
11.489
11.5245
11.5859
11.6436
11.7059
11.755
11.7979
11.8353
11.8623
11.8906
11.9209
11.9572
11.9975
12.0428
12.0893
12.1312
12.1646
12.1922
12.2143
12.235
12.2523
12.2643
12.2677
12.2616
12.2522
12.2288
12.2074
12.2332
1
1
1
1
1
1
1
1
1
1
1
1
1
1
1
1
1
1
1
1
1
1
1
1
1
1
1
1
1
1
1
1
1
1
1
1
1
1
1
1
1
1
1
1
1
1
1
1
1
1
1
1
1
1
1
1.00002
1.00123
1.07982
5.74865
10.6592
10.9647
11.0324
11.1207
11.1903
11.2446
11.3187
11.394
11.403
11.4581
11.4935
11.5563
11.6124
11.678
11.7291
11.7755
11.8142
11.8414
11.8709
11.9033
11.9405
11.9803
12.0244
12.0696
12.1112
12.1443
12.1719
12.1947
12.2153
12.2309
12.2409
12.2426
12.2342
12.2242
12.2062
12.1823
12.192
1
1
1
1
1
1
1
1
1
1
1
1
1
1
1
1
1
1
1
1
1
1
1
1
1
1
1
1
1
1
1
1
1
1
1
1
1
1
1
1
1
1
1
1
1
1
1
1
1
1
1
1
1
1
1
1.00002
1.00111
1.07222
5.3543
10.4273
10.8849
10.9665
11.0917
11.1364
11.2201
11.2786
11.3618
11.374
11.4403
11.4714
11.5364
11.5895
11.6537
11.7035
11.7505
11.7903
11.8205
11.8512
11.8846
11.9208
11.9583
11.9994
12.0423
12.0845
12.1186
12.1476
12.172
12.1926
12.208
12.2165
12.2168
12.208
12.1987
12.1841
12.1538
12.1625
1
1
1
1
1
1
1
1
1
1
1
1
1
1
1
1
1
1
1
1
1
1
1
1
1
1
1
1
1
1
1
1
1
1
1
1
1
1
1
1
1
1
1
1
1
1
1
1
1
1
1
1
1
1
1
1.00001
1.00096
1.06297
4.85411
10.1573
10.8705
10.9306
11.0647
11.1059
11.1988
11.2704
11.3462
11.3703
11.429
11.4478
11.5121
11.562
11.6271
11.6777
11.7261
11.7668
11.8005
11.8323
11.8666
11.9013
11.9354
11.9714
12.0101
12.0503
12.0856
12.1156
12.1421
12.1637
12.1791
12.1872
12.186
12.1759
12.1673
12.1584
12.1393
12.1118
1
1
1
1
1
1
1
1
1
1
1
1
1
1
1
1
1
1
1
1
1
1
1
1
1
1
1
1
1
1
1
1
1
1
1
1
1
1
1
1
1
1
1
1
1
1
1
1
1
1
1
1
1
1
1
1.00001
1.00079
1.05291
4.32204
9.87937
10.8535
10.9064
11.0138
11.089
11.1862
11.2739
11.3181
11.3602
11.4111
11.4172
11.4818
11.5307
11.5976
11.6497
11.7003
11.7429
11.7803
11.8138
11.8469
11.8798
11.9101
11.941
11.9748
12.0116
12.0466
12.0781
12.1053
12.128
12.1446
12.1532
12.1522
12.1412
12.1282
12.1121
12.1061
12.0877
1
1
1
1
1
1
1
1
1
1
1
1
1
1
1
1
1
1
1
1
1
1
1
1
1
1
1
1
1
1
1
1
1
1
1
1
1
1
1
1
1
1
1
1
1
1
1
1
1
1
1
1
1
1
1
1.00001
1.00058
1.03996
3.62339
9.64942
10.8323
10.9362
10.9756
11.1136
11.1909
11.2832
11.2888
11.3394
11.389
11.3829
11.4474
11.5
11.5667
11.6189
11.6712
11.7161
11.7568
11.7915
11.823
11.8539
11.8805
11.9069
11.9365
11.9709
12.0047
12.0362
12.0646
12.088
12.105
12.1146
12.1139
12.1026
12.0883
12.0718
12.0766
12.0486
1
1
1
1
1
1
1
1
1
1
1
1
1
1
1
1
1
1
1
1
1
1
1
1
1
1
1
1
1
1
1
1
1
1
1
1
1
1
1
1
1
1
1
1
1
1
1
1
1
1
1
1
1
1
1
1
1.00034
1.02434
2.68874
9.27035
10.9409
10.9701
11.0401
11.134
11.2109
11.2582
11.2719
11.3078
11.3607
11.3522
11.4095
11.4681
11.5332
11.5859
11.6404
11.6882
11.7314
11.766
11.7956
11.8233
11.8466
11.8697
11.8966
11.9296
11.9623
11.9934
12.0214
12.0447
12.0622
12.0716
12.0709
12.0598
12.0444
12.0262
12.0374
12.0099
1
1
1
1
1
1
1
1
1
1
1
1
1
1
1
1
1
1
1
1
1
1
1
1
1
1
1
1
1
1
1
1
1
1
1
1
1
1
1
1
1
1
1
1
1
1
1
1
1
1
1
1
1
1
1
1
1.00014
1.01046
1.77345
8.75822
11.0661
11.0564
11.0824
11.1385
11.2045
11.2103
11.2513
11.2755
11.3116
11.3282
11.3732
11.4336
11.4972
11.5499
11.607
11.6577
11.7035
11.7376
11.7644
11.7884
11.8084
11.8288
11.8539
11.8858
11.9177
11.9481
11.9752
11.9976
12.0145
12.0237
12.0233
12.0131
11.997
11.9769
11.9912
11.9666
1
1
1
1
1
1
1
1
1
1
1
1
1
1
1
1
1
1
1
1
1
1
1
1
1
1
1
1
1
1
1
1
1
1
1
1
1
1
1
1
1
1
1
1
1
1
1
1
1
1
1
1
1
1
1
1
1.00004
1.00277
1.20185
8.05122
10.961
11.0826
11.0463
11.1013
11.1372
11.1825
11.2066
11.2467
11.2489
11.2952
11.3383
11.3941
11.457
11.5101
11.5708
11.6243
11.6727
11.7066
11.7299
11.7502
11.7665
11.7844
11.8082
11.8388
11.8706
11.9004
11.9264
11.9476
11.9633
11.9717
11.9713
11.9618
11.9443
11.9207
11.9355
11.9171
1
1
1
1
1
1
1
1
1
1
1
1
1
1
1
1
1
1
1
1
1
1
1
1
1
1
1
1
1
1
1
1
1
1
1
1
1
1
1
1
1
1
1
1
1
1
1
1
1
1
1
1
1
1
1
1
1.00002
1.00158
1.10442
7.022
10.917
10.9814
10.971
11.0337
11.0759
11.1212
11.1579
11.2128
11.1983
11.2502
11.3027
11.3518
11.4139
11.4668
11.5318
11.588
11.6389
11.6721
11.692
11.7078
11.7201
11.7352
11.7576
11.787
11.8186
11.8477
11.8725
11.8926
11.9073
11.9153
11.9151
11.9051
11.8845
11.856
11.8735
11.8704
1
1
1
1
1
1
1
1
1
1
1
1
1
1
1
1
1
1
1
1
1
1
1
1
1
1
1
1
1
1
1
1
1
1
1
1
1
1
1
1
1
1
1
1
1
1
1
1
1
1
1
1
1
1
1
1
1.00002
1.00127
1.08307
5.97564
10.7019
10.8649
10.8947
10.9447
11.0073
11.0588
11.1144
11.1451
11.171
11.2106
11.2688
11.3039
11.3682
11.4198
11.4894
11.5484
11.6009
11.6328
11.6497
11.6612
11.6694
11.6813
11.7017
11.7296
11.7611
11.7898
11.8138
11.8327
11.8461
11.8535
11.8549
11.8464
11.8205
11.7792
11.7976
11.8143
1
1
1
1
1
1
1
1
1
1
1
1
1
1
1
1
1
1
1
1
1
1
1
1
1
1
1
1
1
1
1
1
1
1
1
1
1
1
1
1
1
1
1
1
1
1
1
1
1
1
1
1
1
1
1
1
1.00002
1.00105
1.06788
5.10576
10.3825
10.7503
10.7924
10.8545
10.932
11.0052
11.0804
11.0846
11.1418
11.1759
11.2322
11.2567
11.3214
11.3703
11.4434
11.5055
11.5593
11.5891
11.6029
11.6102
11.6146
11.6225
11.6407
11.6666
11.6976
11.7259
11.7491
11.7668
11.7783
11.7839
11.7845
11.777
11.7534
11.717
11.7221
11.726
1
1
1
1
1
1
1
1
1
1
1
1
1
1
1
1
1
1
1
1
1
1
1
1
1
1
1
1
1
1
1
1
1
1
1
1
1
1
1
1
1
1
1
1
1
1
1
1
1
1
1
1
1
1
1
1
1.00001
1.00085
1.05562
4.42798
10.0769
10.6494
10.677
10.7644
10.8586
10.9586
10.9975
11.0725
11.1136
11.1529
11.1868
11.2187
11.2792
11.3208
11.3944
11.4603
11.5143
11.5413
11.5519
11.5549
11.5556
11.5594
11.5747
11.598
11.6278
11.655
11.677
11.6931
11.7024
11.7061
11.7052
11.6979
11.6741
11.6426
11.6324
11.6475
1
1
1
1
1
1
1
1
1
1
1
1
1
1
1
1
1
1
1
1
1
1
1
1
1
1
1
1
1
1
1
1
1
1
1
1
1
1
1
1
1
1
1
1
1
1
1
1
1
1
1
1
1
1
1
1
1.00001
1.00063
1.04129
3.60671
9.77873
10.5077
10.6035
10.6986
10.7969
10.8744
10.9751
11.0629
11.1084
11.1393
11.1386
11.1793
11.2365
11.2777
11.3465
11.4141
11.4657
11.4891
11.4965
11.4952
11.4923
11.4922
11.5039
11.5242
11.5517
11.5768
11.5966
11.6099
11.6161
11.617
11.6146
11.6092
11.5906
11.5666
11.5256
11.5598
1
1
1
1
1
1
1
1
1
1
1
1
1
1
1
1
1
1
1
1
1
1
1
1
1
1
1
1
1
1
1
1
1
1
1
1
1
1
1
1
1
1
1
1
1
1
1
1
1
1
1
1
1
1
1
1
1.00001
1.00037
1.02496
2.63964
9.41832
10.4203
10.5524
10.6621
10.7726
10.882
10.9749
11.0387
11.0834
11.1048
11.1157
11.1444
11.186
11.2385
11.3016
11.3649
11.4129
11.4325
11.4364
11.432
11.4256
11.4211
11.4284
11.4455
11.4692
11.4909
11.5075
11.5173
11.5201
11.5174
11.511
11.5048
11.4916
11.4751
11.4156
11.447
1
1
1
1
1
1
1
1
1
1
1
1
1
1
1
1
1
1
1
1
1
1
1
1
1
1
1
1
1
1
1
1
1
1
1
1
1
1
1
1
1
1
1
1
1
1
1
1
1
1
1
1
1
1
1
1
1
1.00015
1.01008
1.68916
8.68399
10.3795
10.6519
10.7918
10.8385
10.8707
10.9291
10.9846
11.0524
11.072
11.0851
11.1142
11.1323
11.1926
11.2545
11.3132
11.3545
11.3704
11.3708
11.3649
11.3552
11.3467
11.349
11.3618
11.3803
11.397
11.4084
11.4133
11.4116
11.4051
11.3958
11.3863
11.3703
11.3554
11.3014
11.3093
1
1
1
1
1
1
1
1
1
1
1
1
1
1
1
1
1
1
1
1
1
1
1
1
1
1
1
1
1
1
1
1
1
1
1
1
1
1
1
1
1
1
1
1
1
1
1
1
1
1
1
1
1
1
1
1
1
1.00004
1.00248
1.14193
7.3855
10.4187
10.6582
10.7531
10.7914
10.8328
10.8963
10.9593
11.0123
11.0294
11.0518
11.077
11.0859
11.147
11.2038
11.2541
11.2894
11.302
11.3003
11.2945
11.2812
11.2695
11.2661
11.2728
11.285
11.2951
11.2998
11.2977
11.2905
11.2804
11.2681
11.2526
11.2288
11.215
11.1691
11.1546
1
1
1
1
1
1
1
1
1
1
1
1
1
1
1
1
1
1
1
1
1
1
1
1
1
1
1
1
1
1
1
1
1
1
1
1
1
1
1
1
1
1
1
1
1
1
1
1
1
1
1
1
1
1
1
1
1
1.00002
1.00126
1.08262
5.85202
10.1785
10.5955
10.7033
10.7536
10.8102
10.8761
10.9231
10.9686
10.9887
11.0146
11.0127
11.0503
11.0973
11.1475
11.1871
11.2177
11.2274
11.2252
11.2196
11.2034
11.1885
11.1787
11.1786
11.1827
11.1848
11.1813
11.1712
11.1563
11.1388
11.1172
11.0915
11.06
11.036
11.0201
10.9775
1
1
1
1
1
1
1
1
1
1
1
1
1
1
1
1
1
1
1
1
1
1
1
1
1
1
1
1
1
1
1
1
1
1
1
1
1
1
1
1
1
1
1
1
1
1
1
1
1
1
1
1
1
1
1
1
1
1.00001
1.00087
1.05771
4.60057
9.8114
10.5619
10.6079
10.6681
10.7598
10.8514
10.8748
10.9213
10.9449
10.953
10.9872
11.0204
11.0491
11.0847
11.1172
11.1405
11.1474
11.1469
11.1403
11.1221
11.1033
11.0864
11.0779
11.0729
11.0657
11.0528
11.0334
11.0097
10.9824
10.9488
10.9115
10.8733
10.8438
10.797
10.7561
1
1
1
1
1
1
1
1
1
1
1
1
1
1
1
1
1
1
1
1
1
1
1
1
1
1
1
1
1
1
1
1
1
1
1
1
1
1
1
1
1
1
1
1
1
1
1
1
1
1
1
1
1
1
1
1
1
1.00001
1.0005
1.03443
3.27548
9.4167
10.563
10.5585
10.6021
10.6847
10.7722
10.8254
10.8672
10.9206
10.9462
10.9452
10.9579
10.9799
11.0163
11.0445
11.0605
11.0653
11.0672
11.0572
11.037
11.0131
10.9892
10.971
10.9554
10.9379
10.9146
10.8849
10.8497
10.8087
10.7591
10.7021
10.6406
10.5927
10.534
10.4574
1
1
1
1
1
1
1
1
1
1
1
1
1
1
1
1
1
1
1
1
1
1
1
1
1
1
1
1
1
1
1
1
1
1
1
1
1
1
1
1
1
1
1
1
1
1
1
1
1
1
1
1
1
1
1
1
1
1
1.00018
1.01301
1.91348
8.81889
10.5381
10.6448
10.695
10.7714
10.8102
10.8384
10.8574
10.8792
10.8866
10.8856
10.8933
10.9174
10.945
10.9714
10.9802
10.9858
10.9846
10.9703
10.9475
10.9176
10.8861
10.8575
10.8306
10.8019
10.7672
10.7248
10.6741
10.6137
10.5422
10.4636
10.3788
10.2931
10.1718
10.0289
1
1
1
1
1
1
1
1
1
1
1
1
1
1
1
1
1
1
1
1
1
1
1
1
1
1
1
1
1
1
1
1
1
1
1
1
1
1
1
1
1
1
1
1
1
1
1
1
1
1
1
1
1
1
1
1
1
1
1.00004
1.00267
1.15434
7.58536
10.4189
10.5786
10.6144
10.6781
10.7421
10.7754
10.7913
10.8165
10.8261
10.8281
10.8381
10.853
10.8725
10.8968
10.898
10.9026
10.8985
10.8804
10.8527
10.8166
10.777
10.7381
10.6999
10.6589
10.6111
10.5539
10.4848
10.4012
10.3006
10.182
10.0366
9.86023
9.62184
9.46809
1
1
1
1
1
1
1
1
1
1
1
1
1
1
1
1
1
1
1
1
1
1
1
1
1
1
1
1
1
1
1
1
1
1
1
1
1
1
1
1
1
1
1
1
1
1
1
1
1
1
1
1
1
1
1
1
1
1
1.00002
1.00121
1.08066
5.76475
9.95933
10.5815
10.5855
10.6475
10.7141
10.7118
10.7388
10.7594
10.7706
10.7825
10.7932
10.7913
10.8004
10.8111
10.813
10.8177
10.8104
10.7869
10.7533
10.7114
10.6639
10.6153
10.5653
10.5103
10.4473
10.3726
10.282
10.17
10.0299
9.85407
9.63655
9.35501
8.9717
8.37576
1
1
1
1
1
1
1
1
1
1
1
1
1
1
1
1
1
1
1
1
1
1
1
1
1
1
1
1
1
1
1
1
1
1
1
1
1
1
1
1
1
1
1
1
1
1
1
1
1
1
1
1
1
1
1
1
1
1
1.00001
1.00072
1.04888
4.14608
9.51801
10.5388
10.582
10.6507
10.6854
10.6685
10.6745
10.6982
10.7125
10.7333
10.7355
10.7324
10.7255
10.7263
10.732
10.7292
10.7134
10.687
10.6506
10.604
10.5495
10.4908
10.4279
10.3572
10.2765
10.1819
10.067
9.92328
9.73917
9.49584
9.17169
8.64577
7.69026
5.61921
1
1
1
1
1
1
1
1
1
1
1
1
1
1
1
1
1
1
1
1
1
1
1
1
1
1
1
1
1
1
1
1
1
1
1
1
1
1
1
1
1
1
1
1
1
1
1
1
1
1
1
1
1
1
1
1
1
1
1
1.00028
1.01983
2.34011
9.00945
10.489
10.5258
10.5792
10.6198
10.5986
10.6166
10.6366
10.6399
10.6415
10.6429
10.6568
10.6653
10.6623
10.6517
10.6317
10.608
10.5813
10.544
10.4938
10.4332
10.3644
10.2885
10.2011
10.101
9.98437
9.84322
9.66555
9.43299
9.11065
8.65225
7.92157
6.74894
4.53913
1
1
1
1
1
1
1
1
1
1
1
1
1
1
1
1
1
1
1
1
1
1
1
1
1
1
1
1
1
1
1
1
1
1
1
1
1
1
1
1
1
1
1
1
1
1
1
1
1
1
1
1
1
1
1
1
1
1
1
1.00006
1.00384
1.20158
7.85334
10.5003
10.4871
10.493
10.5226
10.5335
10.5696
10.6104
10.615
10.6212
10.6209
10.603
10.5868
10.5702
10.5535
10.5295
10.5036
10.4741
10.4335
10.3805
10.3147
10.2367
10.148
10.0438
9.9234
9.78339
9.61499
9.40321
9.12413
8.7361
8.19306
7.40752
6.19008
4.23462
1
1
1
1
1
1
1
1
1
1
1
1
1
1
1
1
1
1
1
1
1
1
1
1
1
1
1
1
1
1
1
1
1
1
1
1
1
1
1
1
1
1
1
1
1
1
1
1
1
1
1
1
1
1
1
1
1
1
1
1.00002
1.0013
1.08579
5.88759
10.1116
10.3197
10.3707
10.4303
10.451
10.4876
10.5331
10.5327
10.5368
10.5354
10.5234
10.505
10.4836
10.4602
10.4308
10.3996
10.3641
10.3191
10.2636
10.1931
10.1065
10.0054
9.88536
9.74554
9.58255
9.38876
9.14694
8.83429
8.40856
7.84225
7.06642
6.03183
4.74309
1
1
1
1
1
1
1
1
1
1
1
1
1
1
1
1
1
1
1
1
1
1
1
1
1
1
1
1
1
1
1
1
1
1
1
1
1
1
1
1
1
1
1
1
1
1
1
1
1
1
1
1
1
1
1
1
1
1
1
1.00001
1.00071
1.04846
4.08223
9.58233
10.2451
10.2675
10.3683
10.4007
10.4477
10.4923
10.492
10.4909
10.4762
10.4561
10.4291
10.3993
10.3689
10.3349
10.2973
10.2536
10.2021
10.1406
10.0645
9.97014
9.85911
9.7266
9.57058
9.38752
9.17253
8.90741
8.57462
8.13718
7.57846
6.86115
5.94338
4.8816
1
1
1
1
1
1
1
1
1
1
1
1
1
1
1
1
1
1
1
1
1
1
1
1
1
1
1
1
1
1
1
1
1
1
1
1
1
1
1
1
1
1
1
1
1
1
1
1
1
1
1
1
1
1
1
1
1
1
1
1
1.00027
1.01843
2.20251
8.88889
10.2103
10.207
10.3029
10.3471
10.3923
10.4336
10.4313
10.4176
10.3944
10.3729
10.3414
10.3063
10.269
10.2318
10.1902
10.1405
10.0821
10.0141
9.93215
9.83177
9.71239
9.56997
9.40175
9.2032
8.9717
8.69051
8.3484
7.91793
7.38242
6.7146
5.8721
4.97162
1
1
1
1
1
1
1
1
1
1
1
1
1
1
1
1
1
1
1
1
1
1
1
1
1
1
1
1
1
1
1
1
1
1
1
1
1
1
1
1
1
1
1
1
1
1
1
1
1
1
1
1
1
1
1
1
1
1
1
1
1.00006
1.00355
1.18104
7.22935
10.0719
10.1803
10.2508
10.2907
10.3213
10.3583
10.3539
10.3296
10.3046
10.2742
10.2395
10.1994
10.1637
10.126
10.0827
10.0301
9.96685
9.89267
9.80383
9.69644
9.5697
9.4193
9.24191
9.03173
8.78871
8.49802
8.15431
7.73701
7.22046
6.60007
5.83841
5.05417
1
1
1
1
1
1
1
1
1
1
1
1
1
1
1
1
1
1
1
1
1
1
1
1
1
1
1
1
1
1
1
1
1
1
1
1
1
1
1
1
1
1
1
1
1
1
1
1
1
1
1
1
1
1
1
1
1
1
1
1
1.00002
1.0011
1.07258
5.18489
9.63127
10.0819
10.2046
10.2143
10.2342
10.2697
10.2716
10.2482
10.224
10.1829
10.1423
10.0978
10.0593
10.0216
9.97986
9.9276
9.8613
9.77976
9.6828
9.5685
9.43482
9.27751
9.09378
8.87642
8.62632
8.33066
7.98949
7.58459
7.08729
6.51466
5.83181
5.13995
1
1
1
1
1
1
1
1
1
1
1
1
1
1
1
1
1
1
1
1
1
1
1
1
1
1
1
1
1
1
1
1
1
1
1
1
1
1
1
1
1
1
1
1
1
1
1
1
1
1
1
1
1
1
1
1
1
1
1
1
1.00001
1.00049
1.03412
3.21756
9.22107
10.1293
10.1568
10.1488
10.1757
10.2118
10.2072
10.1799
10.1506
10.0991
10.0538
10.007
9.96405
9.92278
9.88017
9.82787
9.75882
9.67105
9.56772
9.447
9.30734
9.14406
8.95524
8.73435
8.48159
8.18513
7.84816
7.45369
6.98059
6.45111
5.84943
5.24603
1
1
1
1
1
1
1
1
1
1
1
1
1
1
1
1
1
1
1
1
1
1
1
1
1
1
1
1
1
1
1
1
1
1
1
1
1
1
1
1
1
1
1
1
1
1
1
1
1
1
1
1
1
1
1
1
1
1
1
1
1
1.00012
1.00818
1.46984
8.0513
10.1124
10.1234
10.119
10.1296
10.1572
10.1425
10.107
10.0707
10.0178
9.96578
9.9192
9.87254
9.83023
9.78464
9.7306
9.65972
9.5677
9.45907
9.33186
9.18699
9.01925
8.82704
8.60515
8.3529
8.05984
7.72783
7.3447
6.89946
6.41058
5.86953
5.33551
1
1
1
1
1
1
1
1
1
1
1
1
1
1
1
1
1
1
1
1
1
1
1
1
1
1
1
1
1
1
1
1
1
1
1
1
1
1
1
1
1
1
1
1
1
1
1
1
1
1
1
1
1
1
1
1
1
1
1
1
1
1.00003
1.00165
1.10054
5.91663
9.76865
10.0689
10.0487
10.0525
10.0661
10.0557
10.0238
9.99188
9.94728
9.88747
9.8401
9.78909
9.74402
9.6955
9.63859
9.5653
9.47014
9.35602
9.22296
9.07345
8.90176
8.70706
8.48536
8.23549
7.94851
7.62332
7.25353
6.83829
6.38191
5.89328
5.40413
1
1
1
1
1
1
1
1
1
1
1
1
1
1
1
1
1
1
1
1
1
1
1
1
1
1
1
1
1
1
1
1
1
1
1
1
1
1
1
1
1
1
1
1
1
1
1
1
1
1
1
1
1
1
1
1
1
1
1
1
1
1.00001
1.00064
1.04397
3.74414
9.24289
10.0315
10.0103
10.0033
9.99364
9.9817
9.94381
9.91257
9.87503
9.81318
9.76508
9.71018
9.66016
9.60764
9.54633
9.46992
9.37222
9.25409
9.11675
8.96327
8.78905
8.59355
8.37382
8.12818
7.84905
7.53363
7.17869
6.79441
6.36414
5.92784
5.47171
1
1
1
1
1
1
1
1
1
1
1
1
1
1
1
1
1
1
1
1
1
1
1
1
1
1
1
1
1
1
1
1
1
1
1
1
1
1
1
1
1
1
1
1
1
1
1
1
1
1
1
1
1
1
1
1
1
1
1
1
1
1
1.00017
1.01181
1.71225
8.30599
10.088
10.0258
9.96075
9.92329
9.90558
9.86018
9.82693
9.79349
9.73727
9.68907
9.63207
9.57689
9.5193
9.45398
9.37473
9.27587
9.15681
9.01817
8.86203
8.68594
8.48976
8.27194
8.03042
7.75869
7.45519
7.11594
6.76001
6.35444
5.95885
5.5217
1
1
1
1
1
1
1
1
1
1
1
1
1
1
1
1
1
1
1
1
1
1
1
1
1
1
1
1
1
1
1
1
1
1
1
1
1
1
1
1
1
1
1
1
1
1
1
1
1
1
1
1
1
1
1
1
1
1
1
1
1
1
1.00003
1.00213
1.11965
6.14536
9.83364
9.91999
9.87141
9.83953
9.82516
9.78031
9.75755
9.73125
9.68411
9.63082
9.57156
9.50929
9.44372
9.37106
9.28561
9.18247
9.06038
8.92042
8.76318
8.58711
8.39149
8.17718
7.94053
7.67602
7.38645
7.06256
6.73211
6.34909
5.9876
5.56958
1
1
1
1
1
1
1
1
1
1
1
1
1
1
1
1
1
1
1
1
1
1
1
1
1
1
1
1
1
1
1
1
1
1
1
1
1
1
1
1
1
1
1
1
1
1
1
1
1
1
1
1
1
1
1
1
1
1
1
1
1
1
1.00001
1.00066
1.04547
3.77017
9.33904
9.83155
9.80037
9.79695
9.77051
9.7181
9.69909
9.67162
9.63293
9.575
9.51483
9.44574
9.37115
9.289
9.19517
9.0869
8.96254
8.82353
8.66946
8.4977
8.30647
8.09688
7.86513
7.60636
7.32913
7.01773
6.7078
6.34682
6.01243
5.6112
1
1
1
1
1
1
1
1
1
1
1
1
1
1
1
1
1
1
1
1
1
1
1
1
1
1
1
1
1
1
1
1
1
1
1
1
1
1
1
1
1
1
1
1
1
1
1
1
1
1
1
1
1
1
1
1
1
1
1
1
1
1
1
1.00015
1.01039
1.60311
8.16399
9.85214
9.79793
9.74152
9.6899
9.64067
9.62501
9.60404
9.57606
9.51877
9.45958
9.38716
9.30601
9.21653
9.1152
9.00085
8.8728
8.73178
8.57873
8.41034
8.22531
8.02174
7.79584
7.54322
7.27765
6.97968
6.68708
6.34646
6.03534
5.65766
1
1
1
1
1
1
1
1
1
1
1
1
1
1
1
1
1
1
1
1
1
1
1
1
1
1
1
1
1
1
1
1
1
1
1
1
1
1
1
1
1
1
1
1
1
1
1
1
1
1
1
1
1
1
1
1
1
1
1
1
1
1
1
1.00003
1.00179
1.10578
5.75562
9.56446
9.69827
9.63555
9.6033
9.56832
9.56245
9.54956
9.52673
9.46744
9.40667
9.33271
9.24451
9.14731
9.03882
8.91755
8.78371
8.63821
8.48874
8.32545
8.1485
7.9525
7.73653
7.4934
7.24028
6.95389
6.67219
6.34693
6.05189
5.69655
1
1
1
1
1
1
1
1
1
1
1
1
1
1
1
1
1
1
1
1
1
1
1
1
1
1
1
1
1
1
1
1
1
1
1
1
1
1
1
1
1
1
1
1
1
1
1
1
1
1
1
1
1
1
1
1
1
1
1
1
1
1
1
1.00001
1.0005
1.03526
3.18966
9.264
9.58419
9.53752
9.55402
9.52081
9.51232
9.49234
9.46591
9.40753
9.3418
9.26704
9.1749
9.07391
8.96313
8.83999
8.70442
8.55667
8.40877
8.24801
8.07615
7.8858
7.6788
7.44629
7.2042
6.92843
6.65992
6.3492
6.07235
5.73371
1
1
1
1
1
1
1
1
1
1
1
1
1
1
1
1
1
1
1
1
1
1
1
1
1
1
1
1
1
1
1
1
1
1
1
1
1
1
1
1
1
1
1
1
1
1
1
1
1
1
1
1
1
1
1
1
1
1
1
1
1
1
1
1
1.00009
1.006
1.3057
7.53684
9.43158
9.57007
9.55931
9.49789
9.46992
9.44089
9.40865
9.34978
9.28143
9.20224
9.10757
9.00639
8.8938
8.77031
8.63441
8.48484
8.33324
8.1731
8.00492
7.81976
7.62199
7.40139
7.17354
6.91135
6.65698
6.36033
6.09292
5.76757
1
1
1
1
1
1
1
1
1
1
1
1
1
1
1
1
1
1
1
1
1
1
1
1
1
1
1
1
1
1
1
1
1
1
1
1
1
1
1
1
1
1
1
1
1
1
1
1
1
1
1
1
1
1
1
1
1
1
1
1
1
1
1
1
1.00002
1.00108
1.07129
4.70643
9.07687
9.51135
9.50354
9.46585
9.43807
9.40043
9.35736
9.29098
9.21451
9.12727
9.02936
8.92631
8.81332
8.69313
8.56197
8.41522
8.26831
8.11178
7.94606
7.76359
7.5714
7.35848
7.14055
6.8897
6.64838
6.36294
6.11102
5.80551
1
1
1
1
1
1
1
1
1
1
1
1
1
1
1
1
1
1
1
1
1
1
1
1
1
1
1
1
1
1
1
1
1
1
1
1
1
1
1
1
1
1
1
1
1
1
1
1
1
1
1
1
1
1
1
1
1
1
1
1
1
1
1
1
1
1.00022
1.01606
1.97633
8.4307
9.32839
9.40463
9.41633
9.38528
9.348
9.2999
9.23268
9.1534
9.06185
8.95964
8.85159
8.7387
8.62018
8.49502
8.35483
8.21016
8.05464
7.88968
7.7094
7.52187
7.31495
7.10608
6.86875
6.63989
6.3713
6.13299
5.83579
1
1
1
1
1
1
1
1
1
1
1
1
1
1
1
1
1
1
1
1
1
1
1
1
1
1
1
1
1
1
1
1
1
1
1
1
1
1
1
1
1
1
1
1
1
1
1
1
1
1
1
1
1
1
1
1
1
1
1
1
1
1
1
1
1
1.00004
1.00235
1.13271
5.96448
8.91494
9.3128
9.35725
9.33188
9.29509
9.24831
9.18289
9.10416
9.00942
8.90048
8.78356
8.66619
8.54483
8.42168
8.28784
8.14856
7.99938
7.84174
7.66769
7.48477
7.28128
7.07657
6.84565
6.62539
6.36885
6.14304
5.86289
1
1
1
1
1
1
1
1
1
1
1
1
1
1
1
1
1
1
1
1
1
1
1
1
1
1
1
1
1
1
1
1
1
1
1
1
1
1
1
1
1
1
1
1
1
1
1
1
1
1
1
1
1
1
1
1
1
1
1
1
1
1
1
1
1
1.00001
1.00046
1.03216
2.87835
8.55659
9.35458
9.32622
9.28119
9.23238
9.17852
9.11776
9.04393
8.95469
8.84606
8.72641
8.60494
8.47922
8.35584
8.22826
8.09194
7.94648
7.79481
7.62549
7.44669
7.2473
7.04689
6.82315
6.61264
6.36906
6.15521
5.89201
1
1
1
1
1
1
1
1
1
1
1
1
1
1
1
1
1
1
1
1
1
1
1
1
1
1
1
1
1
1
1
1
1
1
1
1
1
1
1
1
1
1
1
1
1
1
1
1
1
1
1
1
1
1
1
1
1
1
1
1
1
1
1
1
1
1
1.00007
1.00467
1.24362
6.87174
9.10506
9.25507
9.20031
9.14573
9.08893
9.03561
8.98189
8.90141
8.8
8.68396
8.56081
8.43035
8.30062
8.16948
8.03386
7.89099
7.7463
7.58519
7.41526
7.22348
7.02747
6.80771
6.60065
6.3643
6.15874
5.90706
1
1
1
1
1
1
1
1
1
1
1
1
1
1
1
1
1
1
1
1
1
1
1
1
1
1
1
1
1
1
1
1
1
1
1
1
1
1
1
1
1
1
1
1
1
1
1
1
1
1
1
1
1
1
1
1
1
1
1
1
1
1
1
1
1
1
1.00001
1.00077
1.0526
3.79746
8.71292
9.1999
9.11858
9.06111
9.00406
8.95279
8.89581
8.82574
8.74044
8.63492
8.5168
8.38638
8.25244
8.12102
7.98594
7.84316
7.70186
7.54548
7.3812
7.19574
7.0051
6.79089
6.5905
6.36319
6.16623
5.92504
1
1
1
1
1
1
1
1
1
1
1
1
1
1
1
1
1
1
1
1
1
1
1
1
1
1
1
1
1
1
1
1
1
1
1
1
1
1
1
1
1
1
1
1
1
1
1
1
1
1
1
1
1
1
1
1
1
1
1
1
1
1
1
1
1
1
1
1.00012
1.00806
1.4268
7.26618
9.20982
9.10723
8.99756
8.92505
8.87125
8.81254
8.74956
8.67558
8.58656
8.47792
8.35351
8.22021
8.08364
7.94302
7.7969
7.65636
7.50343
7.34622
7.17031
6.98907
6.78285
6.58764
6.36345
6.17091
5.93769
1
1
1
1
1
1
1
1
1
1
1
1
1
1
1
1
1
1
1
1
1
1
1
1
1
1
1
1
1
1
1
1
1
1
1
1
1
1
1
1
1
1
1
1
1
1
1
1
1
1
1
1
1
1
1
1
1
1
1
1
1
1
1
1
1
1
1
1.00002
1.00111
1.07053
4.2597
8.80292
9.05597
8.96021
8.88117
8.81224
8.74267
8.67367
8.60258
8.52464
8.42645
8.3119
8.18363
8.04732
7.90866
7.76222
7.62042
7.46841
7.31488
7.14367
6.96865
6.7708
6.58256
6.36514
6.18148
5.95548
1
1
1
1
1
1
1
1
1
1
1
1
1
1
1
1
1
1
1
1
1
1
1
1
1
1
1
1
1
1
1
1
1
1
1
1
1
1
1
1
1
1
1
1
1
1
1
1
1
1
1
1
1
1
1
1
1
1
1
1
1
1
1
1
1
1
1
1
1.00016
1.01079
1.56734
7.50228
9.06015
8.95877
8.85131
8.75783
8.68291
8.61097
8.53939
8.4629
8.37503
8.27085
8.15245
8.02119
7.88073
7.73069
7.58563
7.43317
7.28198
7.11605
6.95107
6.76288
6.58181
6.37054
6.19079
5.97039
1
1
1
1
1
1
1
1
1
1
1
1
1
1
1
1
1
1
1
1
1
1
1
1
1
1
1
1
1
1
1
1
1
1
1
1
1
1
1
1
1
1
1
1
1
1
1
1
1
1
1
1
1
1
1
1
1
1
1
1
1
1
1
1
1
1
1
1
1.00002
1.00144
1.08504
4.53617
8.64018
8.89383
8.81938
8.71894
8.64398
8.5656
8.48655
8.40792
8.32422
8.22601
8.11476
7.98813
7.85228
7.70645
7.56079
7.40644
7.25757
7.09424
6.93386
6.75136
6.57695
6.37368
6.20285
5.98972
1
1
1
1
1
1
1
1
1
1
1
1
1
1
1
1
1
1
1
1
1
1
1
1
1
1
1
1
1
1
1
1
1
1
1
1
1
1
1
1
1
1
1
1
1
1
1
1
1
1
1
1
1
1
1
1
1
1
1
1
1
1
1
1
1
1
1
1
1
1.00019
1.0131
1.66418
7.65868
8.8637
8.8012
8.70066
8.6087
8.52238
8.43806
8.35632
8.27433
8.18106
8.07756
7.95869
7.8282
7.68489
7.53712
7.38162
7.23366
7.07139
6.91618
6.74074
6.57719
6.38199
6.21548
6.00816
1
1
1
1
1
1
1
1
1
1
1
1
1
1
1
1
1
1
1
1
1
1
1
1
1
1
1
1
1
1
1
1
1
1
1
1
1
1
1
1
1
1
1
1
1
1
1
1
1
1
1
1
1
1
1
1
1
1
1
1
1
1
1
1
1
1
1
1
1
1.00003
1.00171
1.09542
4.67575
8.38068
8.76581
8.6868
8.57601
8.49274
8.40255
8.3165
8.23435
8.14278
8.04146
7.92615
7.80045
7.66321
7.52008
7.36455
7.21794
7.05747
6.90591
6.73333
6.57449
6.38551
6.22646
6.02766
1
1
1
1
1
1
1
1
1
1
1
1
1
1
1
1
1
1
1
1
1
1
1
1
1
1
1
1
1
1
1
1
1
1
1
1
1
1
1
1
1
1
1
1
1
1
1
1
1
1
1
1
1
1
1
1
1
1
1
1
1
1
1
1
1
1
1
1
1
1
1.00021
1.01399
1.69965
7.51704
8.71801
8.66637
8.55905
8.46382
8.36522
8.2761
8.19266
8.10283
8.00411
7.89508
7.77582
7.64475
7.50308
7.34818
7.20288
7.04326
6.8941
6.72492
6.5748
6.39317
6.24039
6.04874
1
1
1
1
1
1
1
1
1
1
1
1
1
1
1
1
1
1
1
1
1
1
1
1
1
1
1
1
1
1
1
1
1
1
1
1
1
1
1
1
1
1
1
1
1
1
1
1
1
1
1
1
1
1
1
1
1
1
1
1
1
1
1
1
1
1
1
1
1
1
1.00003
1.00167
1.09431
4.49559
8.2384
8.62571
8.53496
8.4365
8.34119
8.2497
8.16606
8.07712
7.97612
7.86548
7.74761
7.62028
7.48511
7.33538
7.1924
7.03557
6.89046
6.72383
6.57723
6.39885
6.25224
6.06863
1
1
1
1
1
1
1
1
1
1
1
1
1
1
1
1
1
1
1
1
1
1
1
1
1
1
1
1
1
1
1
1
1
1
1
1
1
1
1
1
1
1
1
1
1
1
1
1
1
1
1
1
1
1
1
1
1
1
1
1
1
1
1
1
1
1
1
1
1
1
1
1.00018
1.01237
1.62476
7.10719
8.56914
8.51217
8.40915
8.31438
8.22058
8.13438
8.04421
7.94312
7.83817
7.7248
7.60233
7.46946
7.32329
7.18097
7.02737
6.88478
6.72143
6.58047
6.40651
6.26748
6.09147
1
1
1
1
1
1
1
1
1
1
1
1
1
1
1
1
1
1
1
1
1
1
1
1
1
1
1
1
1
1
1
1
1
1
1
1
1
1
1
1
1
1
1
1
1
1
1
1
1
1
1
1
1
1
1
1
1
1
1
1
1
1
1
1
1
1
1
1
1
1
1
1.00002
1.00131
1.07754
3.87231
8.1383
8.49285
8.39253
8.30402
8.20517
8.11676
8.02695
7.92442
7.8157
7.69985
7.57847
7.45017
7.31206
7.17224
7.02417
6.88394
6.72544
6.58703
6.4174
6.28118
6.1109
1
1
1
1
1
1
1
1
1
1
1
1
1
1
1
1
1
1
1
1
1
1
1
1
1
1
1
1
1
1
1
1
1
1
1
1
1
1
1
1
1
1
1
1
1
1
1
1
1
1
1
1
1
1
1
1
1
1
1
1
1
1
1
1
1
1
1
1
1
1
1
1
1.00012
1.00852
1.43546
6.46328
8.37476
8.34551
8.26547
8.17525
8.09059
7.99942
7.89986
7.79506
7.68315
7.56562
7.43801
7.30429
7.16288
7.02198
6.88019
6.72968
6.58975
6.43192
6.29412
6.13315
1
1
1
1
1
1
1
1
1
1
1
1
1
1
1
1
1
1
1
1
1
1
1
1
1
1
1
1
1
1
1
1
1
1
1
1
1
1
1
1
1
1
1
1
1
1
1
1
1
1
1
1
1
1
1
1
1
1
1
1
1
1
1
1
1
1
1
1
1
1
1
1
1.00001
1.00079
1.05046
2.95877
7.86818
8.36925
8.26622
8.171
8.07479
7.9902
7.89171
7.78166
7.6633
7.54519
7.41987
7.29468
7.15527
7.02274
6.87695
6.7399
6.59316
6.45022
6.30163
6.15201
1
1
1
1
1
1
1
1
1
1
1
1
1
1
1
1
1
1
1
1
1
1
1
1
1
1
1
1
1
1
1
1
1
1
1
1
1
1
1
1
1
1
1
1
1
1
1
1
1
1
1
1
1
1
1
1
1
1
1
1
1
1
1
1
1
1
1
1
1
1
1
1
1
1.00007
1.00482
1.24922
5.60652
8.14862
8.21749
8.12366
8.03649
7.9635
7.87448
7.7697
7.65412
7.53812
7.41304
7.28808
7.14719
7.01867
6.8712
6.74622
6.59452
6.46799
6.30769
6.17089
1
1
1
1
1
1
1
1
1
1
1
1
1
1
1
1
1
1
1
1
1
1
1
1
1
1
1
1
1
1
1
1
1
1
1
1
1
1
1
1
1
1
1
1
1
1
1
1
1
1
1
1
1
1
1
1
1
1
1
1
1
1
1
1
1
1
1
1
1
1
1
1
1
1.00001
1.00042
1.02803
2.20212
7.24891
8.22439
8.15266
8.05102
7.96668
7.8725
7.75917
7.63814
7.52328
7.40005
7.28113
7.14319
7.01793
6.87163
6.75299
6.60102
6.48125
6.31388
6.18705
1
1
1
1
1
1
1
1
1
1
1
1
1
1
1
1
1
1
1
1
1
1
1
1
1
1
1
1
1
1
1
1
1
1
1
1
1
1
1
1
1
1
1
1
1
1
1
1
1
1
1
1
1
1
1
1
1
1
1
1
1
1
1
1
1
1
1
1
1
1
1
1
1
1
1.00004
1.00249
1.13434
4.33662
7.94266
8.13397
8.0334
7.95051
7.86382
7.75092
7.63422
7.52226
7.397
7.27837
7.13893
7.01447
6.87088
6.75757
6.60768
6.48979
6.32178
6.2042
1
1
1
1
1
1
1
1
1
1
1
1
1
1
1
1
1
1
1
1
1
1
1
1
1
1
1
1
1
1
1
1
1
1
1
1
1
1
1
1
1
1
1
1
1
1
1
1
1
1
1
1
1
1
1
1
1
1
1
1
1
1
1
1
1
1
1
1
1
1
1
1
1
1
1
1.00018
1.01238
1.56923
6.31871
8.08252
8.02961
7.9417
7.84235
7.73595
7.62067
7.50658
7.38586
7.27199
7.13727
7.01355
6.87523
6.76818
6.61789
6.4996
6.33242
6.21995
1
1
1
1
1
1
1
1
1
1
1
1
1
1
1
1
1
1
1
1
1
1
1
1
1
1
1
1
1
1
1
1
1
1
1
1
1
1
1
1
1
1
1
1
1
1
1
1
1
1
1
1
1
1
1
1
1
1
1
1
1
1
1
1
1
1
1
1
1
1