/*--------------------------------*- C++ -*----------------------------------*\
| =========                 |                                                 |
| \\      /  F ield         | OpenFOAM: The Open Source CFD Toolbox           |
|  \\    /   O peration     | Version:  v1812                                 |
|   \\  /    A nd           | Web:      www.OpenFOAM.com                      |
|    \\/     M anipulation  |                                                 |
\*---------------------------------------------------------------------------*/
FoamFile
{
    version     2.0;
    format      ascii;
    class       surfaceScalarField;
    location    "0.7";
    object      phi;
}
// * * * * * * * * * * * * * * * * * * * * * * * * * * * * * * * * * * * * * //

dimensions      [1 0 -1 0 0 0 0];
oriented        oriented;


internalField   nonuniform List<scalar> 
128384
(
0.00262501
-3.66596e-20
0.00262501
-7.40945e-19
0.00262501
-1.70469e-18
0.00262501
-1.24338e-18
0.00262501
-8.6472e-19
0.00262501
2.05405e-18
0.00262501
3.58615e-19
0.00262501
5.79864e-19
0.00262501
2.00728e-18
0.00262501
4.86344e-19
0.00262501
1.25394e-18
0.00262501
1.79965e-19
0.00262501
-7.93867e-19
0.00262501
-2.73427e-18
0.00262501
-7.00383e-19
0.00262501
1.18853e-18
0.00262501
7.02706e-19
0.00262501
1.85468e-18
0.00262501
1.13088e-18
0.00262501
7.33558e-19
0.00262501
1.30791e-18
0.00262501
1.54777e-18
0.00262501
-8.62491e-19
0.00262501
-3.89046e-19
0.00262501
1.03884e-19
0.00262501
1.35352e-20
0.00262501
1.50702e-18
0.00262501
1.03753e-18
0.00262501
1.44191e-18
0.00262501
2.42085e-18
0.00262501
1.71242e-18
0.00262501
1.23954e-18
0.00262501
8.25649e-19
0.00262501
5.69719e-19
0.00262501
2.19283e-19
0.00262501
-6.62266e-19
0.00262501
5.03983e-19
0.00262501
1.86305e-18
0.00262501
1.22523e-18
0.00262501
8.17962e-19
0.00262501
6.74296e-19
0.00262501
6.62361e-20
0.00262501
1.19094e-18
0.00262501
1.3353e-18
0.00262501
-9.46562e-19
0.00262501
3.63017e-19
0.00262501
-6.50716e-19
0.00262501
9.45353e-20
0.00262501
-1.62086e-19
0.00262501
1.40032e-19
0.00262501
-3.81628e-18
0.00262501
-3.95657e-16
0.00262501
-3.13431e-14
0.00262501
-2.65746e-12
0.00262501
-2.11755e-10
0.00262498
-1.75669e-08
0.00262326
-1.49883e-06
0.00259593
-0.00010701
0.002854
-0.000284761
0.00284006
1.44969e-05
0.0025754
0.000196069
0.0023516
0.000169002
0.00228162
7.48029e-05
0.00228258
9.42589e-06
0.00228705
1.28497e-05
0.00224889
4.9583e-05
0.0021431
0.000104812
0.00202157
9.94093e-05
0.00194316
6.22547e-05
0.001896
5.18102e-05
0.00183278
6.86818e-05
0.00175373
7.95916e-05
0.00167779
6.71576e-05
0.00161095
5.35397e-05
0.00155465
4.9571e-05
0.00150356
5.05447e-05
0.00145149
5.59462e-05
0.00138758
7.11232e-05
0.00129928
9.52882e-05
0.00119251
0.000111498
0.00108103
0.000110523
0.000980195
9.41234e-05
0.000888287
8.55503e-05
0.000796772
8.5256e-05
0.000700146
9.1142e-05
0.000597647
9.8384e-05
0.000493979
0.000100794
0.000396475
9.60383e-05
0.000310734
8.50045e-05
0.000236432
7.19409e-05
0.000170912
6.09601e-05
0.00011409
5.38086e-05
6.85866e-05
4.44323e-05
3.23334e-05
3.5041e-05
1.00122e-05
2.0411e-05
9.62321e-06
0.00262501
-2.15758e-19
0.00262501
1.33867e-18
0.00262501
7.28258e-19
0.00262501
3.52856e-19
0.00262501
6.04472e-19
0.00262501
-5.65876e-19
0.00262501
-1.91782e-20
0.00262501
-5.5525e-19
0.00262501
7.75262e-19
0.00262501
6.96151e-19
0.00262501
-5.07234e-19
0.00262501
1.47708e-19
0.00262501
6.42057e-20
0.00262501
3.47726e-19
0.00262501
-9.67647e-19
0.00262501
5.88114e-19
0.00262501
-2.44504e-19
0.00262501
7.12292e-19
0.00262501
1.51957e-18
0.00262501
1.96726e-18
0.00262501
-2.39716e-20
0.00262501
8.12399e-19
0.00262501
7.58912e-19
0.00262501
-4.70213e-19
0.00262501
8.3918e-19
0.00262501
1.89944e-19
0.00262501
4.51851e-19
0.00262501
-2.54496e-19
0.00262501
1.13931e-20
0.00262501
2.09298e-19
0.00262501
1.66235e-18
0.00262501
-3.53364e-19
0.00262501
-2.10008e-18
0.00262501
-1.01604e-18
0.00262501
8.49828e-19
0.00262501
8.31943e-19
0.00262501
6.6595e-19
0.00262501
9.17863e-19
0.00262501
1.20843e-18
0.00262501
8.97617e-19
0.00262501
1.28109e-18
0.00262501
7.9286e-19
0.00262501
1.35212e-18
0.00262501
1.32286e-18
0.00262501
8.43828e-19
0.00262501
6.13069e-19
0.00262501
4.24897e-19
0.00262501
5.10136e-19
0.00262501
1.79133e-19
0.00262501
-4.53115e-19
0.00262501
-1.62317e-18
0.00262501
9.64994e-17
0.00262501
1.35214e-14
0.00262501
1.66697e-12
0.00262501
1.74984e-10
0.00262492
1.83842e-08
0.0026179
1.74482e-06
0.0022253
0.000146614
0.00205964
-0.000138769
0.00205003
3.0584e-05
0.00192433
0.000267629
0.00179156
0.000276768
0.00168512
0.000185784
0.00163019
8.8889e-05
0.00159057
6.34302e-05
0.00154624
8.83843e-05
0.00150338
0.000128722
0.00146551
0.000124408
0.00143994
8.93553e-05
0.0014209
8.10146e-05
0.00139301
0.000101372
0.00135789
0.000112435
0.00131706
9.90133e-05
0.00127739
8.43891e-05
0.00124232
7.82451e-05
0.00121508
7.59893e-05
0.00119679
7.69575e-05
0.00118533
9.04962e-05
0.00117781
0.000113995
0.00116225
0.000135663
0.00111107
0.000162232
0.00102793
0.000172926
0.000935953
0.000171839
0.000841296
0.000173979
0.000745978
0.000181276
0.000650349
0.000190063
0.000554926
0.000193459
0.000462133
0.000187406
0.000375694
0.000170738
0.000297046
0.000148113
0.000226441
0.000126657
0.000165229
0.000111064
0.000115496
9.26502e-05
7.36925e-05
7.55027e-05
3.61432e-05
5.60804e-05
4.49317e-05
0.00262501
3.10121e-19
0.00262501
1.61817e-20
0.00262501
2.00557e-19
0.00262501
9.83831e-19
0.00262501
8.3613e-20
0.00262501
4.44998e-19
0.00262501
1.08148e-18
0.00262501
2.66652e-19
0.00262501
-1.19242e-20
0.00262501
8.0757e-19
0.00262501
1.29252e-18
0.00262501
5.82519e-19
0.00262501
4.88813e-20
0.00262501
1.33619e-18
0.00262501
1.69447e-18
0.00262501
3.50881e-19
0.00262501
1.42086e-18
0.00262501
9.31036e-19
0.00262501
1.15336e-18
0.00262501
1.33846e-18
0.00262501
1.41079e-18
0.00262501
-5.36421e-19
0.00262501
1.52976e-18
0.00262501
7.96573e-19
0.00262501
-1.40069e-18
0.00262501
-2.61811e-19
0.00262501
-1.04428e-18
0.00262501
-8.88802e-20
0.00262501
3.85491e-19
0.00262501
-1.18713e-18
0.00262501
-1.15127e-18
0.00262501
-1.56944e-18
0.00262501
2.0884e-19
0.00262501
6.34228e-19
0.00262501
5.69932e-19
0.00262501
1.90451e-18
0.00262501
1.07664e-18
0.00262501
1.5132e-18
0.00262501
-2.53612e-20
0.00262501
4.69841e-19
0.00262501
6.06611e-19
0.00262501
7.26385e-19
0.00262501
7.65116e-19
0.00262501
1.21839e-18
0.00262501
1.23627e-18
0.00262501
1.42061e-18
0.00262501
1.33793e-18
0.00262501
-6.41509e-19
0.00262501
-1.56791e-19
0.00262501
-1.8937e-18
0.00262501
-7.32078e-18
0.00262501
-3.54479e-16
0.00262501
-3.58134e-14
0.00262501
-2.89604e-12
0.00262501
-2.77406e-10
0.00262503
-2.33273e-08
0.00262757
-2.25281e-06
0.00286161
-0.000156368
0.0029125
-0.000282542
0.00271577
0.000143789
0.00256119
0.00035099
0.00251262
0.000317292
0.00251488
0.000214666
0.00253275
0.000121905
0.00251505
0.000115284
0.00244098
0.000178152
0.00230924
0.000230734
0.0021847
0.000216873
0.0021037
0.000170847
0.00203616
0.000161062
0.00196881
0.000179433
0.0018982
0.000184823
0.00182093
0.000166804
0.00173809
0.000153812
0.00165866
0.000150848
0.00158276
0.000150639
0.00151136
0.000151599
0.00144223
0.000165455
0.00137586
0.000187539
0.00130922
0.000209331
0.00124587
0.000229504
0.00118244
0.000234824
0.00111534
0.000233713
0.00104677
0.000236606
0.000973373
0.000249932
0.000888501
0.000272048
0.000791403
0.000288999
0.000687113
0.000290887
0.000581893
0.000275237
0.00048015
0.00024737
0.000384592
0.000217109
0.000297428
0.000192166
0.000222017
0.00016413
0.000153543
0.000141895
7.93793e-05
0.00012834
0.000123406
0.00262501
-3.95959e-19
0.00262501
-6.28838e-19
0.00262501
4.81049e-19
0.00262501
-3.07615e-20
0.00262501
-1.14566e-19
0.00262501
-1.59373e-18
0.00262501
-5.07421e-19
0.00262501
3.03593e-19
0.00262501
1.30923e-18
0.00262501
5.37812e-19
0.00262501
1.5792e-19
0.00262501
1.43019e-18
0.00262501
1.13201e-18
0.00262501
6.66168e-19
0.00262501
1.96486e-18
0.00262501
1.47386e-18
0.00262501
2.23292e-18
0.00262501
1.66991e-18
0.00262501
2.82431e-18
0.00262501
6.76154e-19
0.00262501
7.69853e-19
0.00262501
1.89951e-18
0.00262501
2.0353e-19
0.00262501
1.37835e-18
0.00262501
2.23563e-18
0.00262501
1.95571e-18
0.00262501
-4.93611e-19
0.00262501
-2.08658e-19
0.00262501
4.27661e-19
0.00262501
1.00645e-18
0.00262501
-3.97114e-19
0.00262501
7.05253e-19
0.00262501
-1.22437e-19
0.00262501
2.08003e-19
0.00262501
5.80652e-19
0.00262501
1.85286e-19
0.00262501
4.81219e-19
0.00262501
-1.1353e-19
0.00262501
9.17242e-19
0.00262501
1.0813e-18
0.00262501
3.4859e-19
0.00262501
7.55362e-19
0.00262501
3.07001e-20
0.00262501
1.22344e-18
0.00262501
1.99484e-18
0.00262501
1.11458e-18
0.00262501
2.06017e-19
0.00262501
1.7584e-18
0.00262501
-6.20148e-19
0.00262501
-3.60059e-19
0.00262501
5.59326e-18
0.00262501
4.89978e-16
0.00262501
3.14693e-14
0.00262501
3.27913e-12
0.00262501
2.39203e-10
0.00262491
2.58335e-08
0.00261692
2.05476e-06
0.00214004
0.000192963
0.00179691
4.67803e-05
0.00185528
8.93174e-05
0.00180491
0.000343837
0.00172262
0.000368658
0.00165218
0.000281752
0.00163279
0.000153839
0.00163559
0.000130167
0.00164541
0.000183515
0.0016345
0.000224196
0.00160962
0.000227116
0.00159372
0.000185342
0.00159281
0.000175837
0.00158368
0.000196025
0.00156561
0.000201328
0.00153458
0.000185473
0.0014978
0.00017991
0.0014569
0.00018484
0.00141561
0.000189878
0.0013773
0.000191432
0.00134049
0.000208274
0.00130057
0.000235763
0.00125532
0.000263111
0.00120743
0.000282256
0.001154
0.000286168
0.00109492
0.000286638
0.00103457
0.000290258
0.000975371
0.000303919
0.000915719
0.000328485
0.00084906
0.000354032
0.000769441
0.000369282
0.0006768
0.000366083
0.000575528
0.00034514
0.000470401
0.000316155
0.000366366
0.000288182
0.000268878
0.000254592
0.000178201
0.000229033
8.74517e-05
0.000216821
0.000209477
0.00262501
1.08953e-20
0.00262501
6.00017e-19
0.00262501
-9.28587e-19
0.00262501
-2.04917e-18
0.00262501
-4.43342e-19
0.00262501
-3.22613e-19
0.00262501
2.36425e-19
0.00262501
6.76172e-20
0.00262501
-1.11937e-18
0.00262501
-1.04197e-18
0.00262501
2.12376e-21
0.00262501
3.06536e-19
0.00262501
2.00106e-18
0.00262501
9.27306e-19
0.00262501
8.86613e-19
0.00262501
7.03864e-19
0.00262501
8.46393e-19
0.00262501
1.19366e-18
0.00262501
7.65734e-19
0.00262501
-3.80245e-19
0.00262501
-2.26923e-19
0.00262501
-1.85029e-18
0.00262501
-1.95816e-19
0.00262501
-1.97654e-19
0.00262501
2.1915e-19
0.00262501
-2.38057e-20
0.00262501
1.20558e-18
0.00262501
6.44137e-19
0.00262501
-9.60101e-19
0.00262501
-8.44306e-19
0.00262501
1.49738e-18
0.00262501
8.85456e-19
0.00262501
8.18376e-19
0.00262501
1.69061e-19
0.00262501
7.48624e-19
0.00262501
-4.29247e-19
0.00262501
8.51459e-19
0.00262501
1.40352e-18
0.00262501
8.30248e-19
0.00262501
8.34356e-19
0.00262501
1.24455e-18
0.00262501
1.54527e-18
0.00262501
1.74194e-18
0.00262501
1.01066e-18
0.00262501
5.06751e-19
0.00262501
3.57883e-20
0.00262501
3.87214e-19
0.00262501
-8.97888e-19
0.00262501
4.15352e-19
0.00262501
-1.35042e-19
0.00262501
3.22558e-18
0.00262501
2.48688e-16
0.00262501
1.52991e-14
0.00262501
1.27119e-12
0.00262501
5.5668e-11
0.00262502
4.58761e-09
0.00262577
1.14291e-07
0.00273045
3.95844e-05
0.00265261
4.66748e-05
0.00230168
0.000341487
0.00199109
0.00056025
0.00180185
0.000523273
0.00171627
0.000384998
0.00169865
0.000220255
0.0016735
0.000170101
0.00161352
0.000208867
0.00153928
0.000271755
0.00149462
0.000273243
0.00145742
0.000233704
0.00142426
0.000221818
0.00138788
0.000236145
0.00135592
0.000228336
0.00132945
0.000205164
0.00128402
0.000218235
0.00123528
0.000226967
0.00119181
0.000228493
0.00115779
0.000224833
0.00113245
0.000240013
0.00111083
0.000268412
0.00108809
0.000296458
0.00106306
0.00031246
0.00103017
0.000316795
0.000991402
0.000319804
0.000949083
0.00032635
0.000906847
0.000340752
0.000863101
0.00036846
0.000812269
0.000402768
0.000749026
0.000431031
0.000671975
0.000441078
0.000582623
0.000430797
0.000483208
0.000409423
0.000379396
0.000383464
0.000278853
0.000346334
0.000184754
0.000318295
8.99706e-05
0.000308891
0.000298153
0.00262501
6.50614e-19
0.00262501
5.66002e-19
0.00262501
-5.67048e-20
0.00262501
6.38148e-19
0.00262501
-1.24723e-18
0.00262501
-1.72236e-18
0.00262501
-1.88488e-18
0.00262501
-5.97337e-19
0.00262501
-5.88662e-19
0.00262501
-4.41036e-19
0.00262501
7.78405e-19
0.00262501
1.21707e-18
0.00262501
-2.51536e-19
0.00262501
1.42668e-18
0.00262501
1.84879e-18
0.00262501
3.40593e-19
0.00262501
1.22206e-18
0.00262501
1.18817e-18
0.00262501
4.41018e-19
0.00262501
3.91854e-19
0.00262501
5.37351e-19
0.00262501
9.07101e-20
0.00262501
5.38801e-19
0.00262501
-1.18271e-18
0.00262501
1.98613e-19
0.00262501
-1.59023e-19
0.00262501
-2.58639e-19
0.00262501
-4.68107e-19
0.00262501
3.37734e-19
0.00262501
1.42318e-18
0.00262501
6.14912e-20
0.00262501
1.32918e-18
0.00262501
2.63048e-19
0.00262501
-8.04501e-19
0.00262501
1.09228e-18
0.00262501
2.60407e-18
0.00262501
7.60294e-19
0.00262501
-2.20737e-19
0.00262501
8.17971e-19
0.00262501
5.06745e-19
0.00262501
6.9785e-19
0.00262501
2.60234e-19
0.00262501
1.03839e-18
0.00262501
1.22342e-18
0.00262501
-1.37936e-18
0.00262501
-7.41493e-19
0.00262501
-1.75417e-18
0.00262501
-1.31817e-18
0.00262501
-2.20451e-18
0.00262501
-1.95124e-18
0.00262501
-2.28891e-19
0.00262501
4.17075e-17
0.00262501
9.79683e-16
0.00262501
2.08585e-13
0.00262501
7.68122e-13
0.00262501
7.73616e-10
0.00262494
-1.12777e-08
0.00264837
3.83098e-06
0.00264085
-5.99827e-05
0.00252641
0.000366439
0.00240072
0.000641204
0.00230703
0.00060403
0.00224668
0.000465626
0.00221609
0.000281357
0.00216
0.000246952
0.00206675
0.000304473
0.00191611
0.000390252
0.00178329
0.000396083
0.00168078
0.000343542
0.00159523
0.000321674
0.0015061
0.000331281
0.00140697
0.000322614
0.00131453
0.000290075
0.00125575
0.000271273
0.00120401
0.000272576
0.00115941
0.000267709
0.00111352
0.000269203
0.00106707
0.000292604
0.00102116
0.000326069
0.000978891
0.000350277
0.000940924
0.000356921
0.00090348
0.000354954
0.000865005
0.000354933
0.000826035
0.000359492
0.000791094
0.000369431
0.000761505
0.000393045
0.000728664
0.000432773
0.000682509
0.000475413
0.000621169
0.000500253
0.000546622
0.000501605
0.000461512
0.00048884
0.000370228
0.000466267
0.000277602
0.000428893
0.000186835
0.000403052
9.11879e-05
0.00040148
0.000388388
0.00262501
-1.97589e-19
0.00262501
-1.15842e-18
0.00262501
-3.11002e-19
0.00262501
5.23494e-20
0.00262501
1.54493e-18
0.00262501
2.15949e-19
0.00262501
-5.76538e-19
0.00262501
-7.98582e-19
0.00262501
-2.18165e-19
0.00262501
-4.10076e-19
0.00262501
-1.68096e-18
0.00262501
-5.12149e-20
0.00262501
5.51156e-19
0.00262501
2.32284e-18
0.00262501
2.5912e-19
0.00262501
1.23235e-18
0.00262501
1.90942e-18
0.00262501
8.54789e-19
0.00262501
-1.51216e-18
0.00262501
-8.99313e-19
0.00262501
-1.33029e-19
0.00262501
6.95007e-19
0.00262501
6.39676e-21
0.00262501
1.5031e-18
0.00262501
-1.13551e-19
0.00262501
-1.33236e-18
0.00262501
8.86865e-20
0.00262501
1.83748e-18
0.00262501
5.65105e-19
0.00262501
-8.11854e-19
0.00262501
1.63268e-18
0.00262501
3.95264e-19
0.00262501
1.28507e-18
0.00262501
2.41274e-18
0.00262501
7.09331e-19
0.00262501
1.28467e-18
0.00262501
5.22918e-20
0.00262501
1.03156e-18
0.00262501
-1.28789e-19
0.00262501
5.69168e-19
0.00262501
9.30491e-19
0.00262501
7.37185e-19
0.00262501
3.09006e-19
0.00262501
-2.79432e-19
0.00262501
1.39681e-18
0.00262501
-6.90408e-19
0.00262501
-1.18746e-19
0.00262501
-4.06383e-19
0.00262501
-2.05681e-19
0.00262501
1.26967e-18
0.00262501
7.72978e-19
0.00262501
1.84259e-17
0.00262501
-9.31021e-16
0.00262501
8.1207e-14
0.00262501
-4.65824e-12
0.00262501
3.44032e-10
0.00262491
-2.07858e-08
0.0026199
1.54516e-06
0.0025761
-0.00015601
0.00252264
0.000349011
0.00245538
0.000677131
0.00240169
0.000651501
0.0023563
0.000527919
0.00231472
0.000344684
0.00226759
0.000309741
0.00221587
0.00035968
0.0021308
0.000446483
0.00204768
0.000462757
0.00198601
0.000413654
0.00193222
0.000391865
0.00185702
0.00041495
0.00175892
0.000419331
0.00163746
0.000401361
0.00150803
0.00039082
0.00138341
0.000390265
0.00126998
0.000376805
0.00117222
0.000366461
0.00108765
0.000382977
0.0010154
0.000409084
0.000957649
0.000419584
0.00091111
0.00041187
0.000868256
0.000400801
0.000822613
0.000398165
0.000772932
0.000403029
0.000723374
0.000411642
0.000680525
0.000429977
0.000642459
0.000467673
0.000601544
0.0005147
0.00055201
0.000547715
0.000492511
0.000557489
0.000423423
0.000552444
0.000346381
0.000535027
0.00026498
0.0005003
0.000181903
0.000480043
8.96555e-05
0.00049087
0.000477162
0.00262501
-1.43325e-19
0.00262501
1.59096e-18
0.00262501
3.93627e-19
0.00262501
-2.94754e-19
0.00262501
-5.76859e-19
0.00262501
-6.4409e-19
0.00262501
-1.43606e-20
0.00262501
-1.22872e-18
0.00262501
-2.79613e-18
0.00262501
-1.52904e-19
0.00262501
7.53662e-19
0.00262501
-7.05174e-19
0.00262501
-6.58479e-19
0.00262501
-5.52717e-19
0.00262501
8.35872e-19
0.00262501
1.32492e-18
0.00262501
-1.38547e-19
0.00262501
-7.30672e-19
0.00262501
-3.44434e-19
0.00262501
1.54445e-18
0.00262501
2.37798e-19
0.00262501
-1.58961e-19
0.00262501
-1.06359e-19
0.00262501
5.11176e-19
0.00262501
7.12349e-19
0.00262501
1.76641e-18
0.00262501
1.64697e-18
0.00262501
4.75109e-19
0.00262501
1.24508e-18
0.00262501
1.89962e-18
0.00262501
-8.95084e-19
0.00262501
1.35933e-18
0.00262501
1.65952e-18
0.00262501
1.64863e-18
0.00262501
2.80509e-18
0.00262501
5.60499e-19
0.00262501
2.73582e-19
0.00262501
-3.49968e-19
0.00262501
4.26453e-19
0.00262501
8.68652e-19
0.00262501
9.12212e-19
0.00262501
-5.48889e-19
0.00262501
-7.60727e-21
0.00262501
3.17581e-19
0.00262501
-7.56178e-20
0.00262501
4.29851e-19
0.00262501
1.78261e-18
0.00262501
5.20816e-19
0.00262501
6.45516e-19
0.00262501
-2.91569e-20
0.00262501
5.22876e-19
0.00262501
2.46662e-17
0.00262501
-4.71486e-16
0.00262501
1.05477e-13
0.00262501
-2.44414e-12
0.00262501
4.81082e-10
0.0026249
-9.19481e-09
0.00261784
2.28836e-06
0.00246419
-0.000136631
0.00237892
0.000366638
0.00229129
0.000726628
0.00223353
0.000701184
0.00220287
0.000573661
0.00218237
0.000387968
0.0021626
0.000335106
0.00214177
0.000376321
0.0020824
0.000477341
0.0020212
0.000511836
0.00197107
0.000470133
0.00193108
0.000445377
0.00188268
0.000469288
0.00181933
0.00047949
0.0017414
0.000466324
0.00165265
0.000466268
0.00154961
0.000485507
0.00143434
0.000488977
0.00131452
0.000487182
0.00120288
0.000499957
0.0011054
0.000516468
0.00102542
0.000511109
0.000958896
0.000487603
0.000898258
0.000465504
0.000836762
0.000458121
0.000770527
0.000463018
0.000702357
0.000471679
0.000638969
0.000486833
0.000584954
0.000518267
0.000537008
0.000560909
0.00048972
0.000592822
0.000438529
0.000605251
0.000380635
0.000605277
0.000314946
0.000592772
0.000243627
0.000562011
0.000170366
0.000548031
8.56544e-05
0.000573408
0.000561091
0.00262501
6.83993e-20
0.00262501
-6.16732e-19
0.00262501
1.14295e-18
0.00262501
5.67331e-19
0.00262501
-8.95553e-20
0.00262501
7.76e-19
0.00262501
1.30784e-18
0.00262501
7.146e-20
0.00262501
1.17274e-18
0.00262501
2.98798e-19
0.00262501
-9.35953e-19
0.00262501
-1.12968e-18
0.00262501
-1.07507e-18
0.00262501
-3.98206e-19
0.00262501
-6.3483e-19
0.00262501
-1.20378e-18
0.00262501
-1.72659e-18
0.00262501
-1.13527e-18
0.00262501
-5.24423e-19
0.00262501
-1.48631e-18
0.00262501
-1.50003e-18
0.00262501
-5.69688e-19
0.00262501
6.7542e-19
0.00262501
6.51923e-19
0.00262501
1.7634e-18
0.00262501
8.62124e-19
0.00262501
9.29613e-19
0.00262501
6.76654e-19
0.00262501
5.73723e-19
0.00262501
9.91207e-19
0.00262501
2.49994e-18
0.00262501
-2.95894e-19
0.00262501
7.7177e-19
0.00262501
2.02397e-19
0.00262501
-5.68646e-19
0.00262501
-3.16592e-19
0.00262501
6.01484e-19
0.00262501
1.11872e-18
0.00262501
-7.50561e-19
0.00262501
8.19074e-20
0.00262501
-6.53192e-19
0.00262501
1.20296e-18
0.00262501
4.87864e-20
0.00262501
-1.18404e-19
0.00262501
-7.29134e-20
0.00262501
1.21835e-18
0.00262501
2.04078e-19
0.00262501
1.60637e-18
0.00262501
8.44472e-19
0.00262501
8.31608e-19
0.00262501
1.64568e-18
0.00262501
2.67285e-17
0.00262501
-3.40185e-17
0.00262501
1.09834e-13
0.00262501
-1.22562e-12
0.00262501
4.68327e-10
0.00262491
-7.90866e-09
0.00261909
2.07857e-06
0.00246442
-0.000121086
0.0022623
0.000481607
0.00214249
0.00080787
0.00209372
0.000746422
0.00210627
0.000579548
0.00212764
0.000391076
0.00212234
0.000342204
0.00209339
0.000395787
0.00202113
0.000521255
0.001961
0.000566569
0.00191185
0.000525636
0.00187764
0.000494099
0.00183339
0.00051677
0.00177499
0.000531185
0.00170529
0.000519477
0.00163299
0.000523916
0.00155673
0.000553014
0.00147498
0.000567749
0.00138845
0.000575212
0.00129901
0.000595614
0.00121028
0.000615431
0.001127
0.000606552
0.001047
0.000577645
0.000965967
0.000551267
0.000881087
0.000541778
0.000791303
0.000545951
0.000701559
0.000552614
0.000620301
0.000561106
0.000552942
0.00058208
0.000497991
0.00061431
0.000449714
0.000639509
0.00040133
0.000651089
0.000347935
0.000654416
0.000286965
0.00064639
0.000220217
0.000620079
0.000154089
0.000609805
7.89054e-05
0.000646313
0.000638058
0.00262501
3.51654e-19
0.00262501
-3.9521e-19
0.00262501
-5.36472e-19
0.00262501
5.29049e-19
0.00262501
1.03947e-18
0.00262501
1.40096e-19
0.00262501
3.43671e-19
0.00262501
1.09806e-18
0.00262501
3.51036e-19
0.00262501
-7.67022e-19
0.00262501
-9.71274e-19
0.00262501
-1.01936e-19
0.00262501
6.0071e-19
0.00262501
-2.53077e-18
0.00262501
-1.80237e-18
0.00262501
-9.77555e-19
0.00262501
-9.27024e-19
0.00262501
-5.91013e-20
0.00262501
2.18513e-19
0.00262501
-2.05652e-19
0.00262501
-1.87515e-19
0.00262501
-3.25296e-19
0.00262501
-9.1693e-19
0.00262501
-3.38403e-19
0.00262501
-4.61824e-19
0.00262501
7.99579e-19
0.00262501
1.59965e-18
0.00262501
6.80734e-19
0.00262501
5.49418e-19
0.00262501
2.29384e-19
0.00262501
7.78859e-19
0.00262501
6.22246e-19
0.00262501
4.1606e-19
0.00262501
4.66847e-19
0.00262501
2.20927e-19
0.00262501
1.34609e-20
0.00262501
-3.53922e-19
0.00262501
-4.78011e-19
0.00262501
1.76294e-18
0.00262501
-5.30492e-19
0.00262501
-2.57578e-18
0.00262501
-1.95425e-18
0.00262501
-5.00212e-19
0.00262501
8.84852e-19
0.00262501
9.93021e-19
0.00262501
2.75001e-19
0.00262501
4.6071e-19
0.00262501
-2.08583e-19
0.00262501
-2.58804e-19
0.00262501
2.45258e-18
0.00262501
1.7417e-18
0.00262501
2.49268e-17
0.00262501
2.25599e-16
0.00262501
1.03012e-13
0.00262501
-2.79842e-13
0.00262501
4.52391e-10
0.00262491
-4.54886e-09
0.00261895
2.1461e-06
0.00245868
-0.000104426
0.00219509
0.000647393
0.00212496
0.00085582
0.00209489
0.000773862
0.00212644
0.000581088
0.00214273
0.000389929
0.0021302
0.000361315
0.00206108
0.000444785
0.00195754
0.000594518
0.0018957
0.000630187
0.00185233
0.000580857
0.00181773
0.000543885
0.00176939
0.000564562
0.00170807
0.000581624
0.00163896
0.000569108
0.0015758
0.000573536
0.00151248
0.000608082
0.00144924
0.00062866
0.00138618
0.00063997
0.00132396
0.000664864
0.00126163
0.000688961
0.00119202
0.000688425
0.00110954
0.000669516
0.00101445
0.000650282
0.000912497
0.000641871
0.000809235
0.000641765
0.000710188
0.000642323
0.000622294
0.00064162
0.000549267
0.000651082
0.000489335
0.00067261
0.000437387
0.000690511
0.000386451
0.000700401
0.00033034
0.000707037
0.000265809
0.00070438
0.000196503
0.000682599
0.000133833
0.000670937
7.45269e-05
0.000701391
0.000712497
0.00262501
-1.28854e-18
0.00262501
-1.95073e-18
0.00262501
1.65927e-19
0.00262501
-1.16412e-18
0.00262501
-6.81836e-19
0.00262501
-2.19902e-19
0.00262501
7.95918e-19
0.00262501
7.14143e-19
0.00262501
6.30649e-19
0.00262501
1.22839e-19
0.00262501
7.80408e-19
0.00262501
3.07148e-19
0.00262501
-6.04778e-19
0.00262501
1.45185e-18
0.00262501
-7.38246e-20
0.00262501
-3.23988e-19
0.00262501
-9.81177e-21
0.00262501
-1.17596e-18
0.00262501
-1.65306e-19
0.00262501
2.74363e-19
0.00262501
6.94895e-19
0.00262501
5.32022e-19
0.00262501
4.32554e-19
0.00262501
-7.05347e-19
0.00262501
-7.15121e-19
0.00262501
1.21782e-18
0.00262501
3.60729e-19
0.00262501
-5.74627e-19
0.00262501
7.82111e-19
0.00262501
1.0472e-18
0.00262501
1.32825e-18
0.00262501
1.20348e-18
0.00262501
2.96933e-19
0.00262501
2.03071e-18
0.00262501
8.832e-19
0.00262501
1.97523e-18
0.00262501
1.13775e-18
0.00262501
-3.49383e-19
0.00262501
-1.76006e-19
0.00262501
-1.09309e-18
0.00262501
-6.14382e-19
0.00262501
-1.06857e-19
0.00262501
1.352e-18
0.00262501
-1.68251e-19
0.00262501
1.26072e-19
0.00262501
-1.8428e-19
0.00262501
5.42778e-20
0.00262501
4.86947e-19
0.00262501
8.99707e-19
0.00262501
4.69153e-19
0.00262501
1.18553e-18
0.00262501
2.66172e-17
0.00262501
4.29311e-16
0.00262501
1.02216e-13
0.00262501
5.59531e-13
0.00262501
4.37596e-10
0.00262491
-2.63233e-09
0.00261927
2.00895e-06
0.00247403
-9.90826e-05
0.00222363
0.000794714
0.00216855
0.000898241
0.00215805
0.000789436
0.00222409
0.000564246
0.00221817
0.00038964
0.00220884
0.000389518
0.00211646
0.000506769
0.00199576
0.0006849
0.00191994
0.000710836
0.00186667
0.000650188
0.00182057
0.000604331
0.00176281
0.000620799
0.00168855
0.000642758
0.00160618
0.000631198
0.00153576
0.00063201
0.00147225
0.000664525
0.00141623
0.000683384
0.00136749
0.000691484
0.00132499
0.000716025
0.00128265
0.000744067
0.00122963
0.000754496
0.00115803
0.000750271
0.00106704
0.000744498
0.000963878
0.000742588
0.000856321
0.000741675
0.000751315
0.000737932
0.00065575
0.000729659
0.000574776
0.000727924
0.000508006
0.000737533
0.000449948
0.000747461
0.000393709
0.000754947
0.000333311
0.000764098
0.000264993
0.000766422
0.000191014
0.000749757
0.000120274
0.000738997
6.37719e-05
0.000755839
0.000776831
0.00262501
1.18785e-18
0.00262501
4.75361e-19
0.00262501
-6.23799e-19
0.00262501
1.75396e-19
0.00262501
4.34486e-19
0.00262501
-5.25899e-19
0.00262501
5.23372e-19
0.00262501
2.45364e-19
0.00262501
1.92917e-19
0.00262501
5.55633e-19
0.00262501
3.14456e-19
0.00262501
-5.09119e-19
0.00262501
6.03855e-20
0.00262501
1.13689e-19
0.00262501
8.18015e-19
0.00262501
2.46756e-19
0.00262501
1.4018e-19
0.00262501
-4.10378e-19
0.00262501
-4.96577e-19
0.00262501
1.81635e-19
0.00262501
1.43346e-18
0.00262501
6.86808e-19
0.00262501
-1.94361e-20
0.00262501
8.54668e-19
0.00262501
2.03462e-18
0.00262501
-1.21376e-18
0.00262501
-3.19484e-19
0.00262501
2.24403e-18
0.00262501
3.68597e-19
0.00262501
2.00822e-18
0.00262501
3.77226e-19
0.00262501
3.2698e-18
0.00262501
1.14911e-18
0.00262501
-6.31201e-19
0.00262501
1.83557e-18
0.00262501
4.37325e-20
0.00262501
-1.00372e-18
0.00262501
1.84045e-18
0.00262501
-2.47542e-19
0.00262501
-1.21157e-18
0.00262501
-1.09301e-18
0.00262501
-2.01448e-18
0.00262501
-1.2881e-18
0.00262501
-2.0046e-19
0.00262501
-1.23827e-18
0.00262501
-9.85839e-20
0.00262501
-1.45014e-18
0.00262501
-4.75952e-19
0.00262501
-3.17562e-19
0.00262501
7.25134e-19
0.00262501
1.56509e-18
0.00262501
2.7076e-17
0.00262501
7.86528e-16
0.00262501
1.07222e-13
0.00262501
2.22488e-12
0.00262501
4.50762e-10
0.0026249
4.94767e-09
0.00261862
2.10379e-06
0.0023803
-1.91473e-05
0.00214026
0.000928831
0.00211805
0.000925696
0.00214841
0.000783827
0.00224998
0.000519681
0.00225467
0.000384251
0.00220863
0.000420641
0.0020804
0.000595725
0.00196248
0.000779825
0.00190483
0.00077996
0.00187114
0.000708236
0.00183074
0.000657723
0.00177519
0.000674906
0.00169555
0.000706495
0.00160785
0.000698432
0.00153275
0.000696339
0.00146676
0.000724667
0.00141143
0.000738689
0.00136737
0.000739367
0.00133391
0.000759535
0.00130227
0.000789557
0.00126068
0.000809227
0.00120097
0.000818432
0.00112093
0.000826774
0.00102577
0.000834472
0.000921603
0.000838041
0.000815282
0.000834899
0.00071368
0.000823582
0.000623296
0.00081399
0.000545788
0.00081315
0.000478168
0.000814045
0.000413808
0.000817617
0.000346604
0.000827734
0.00027252
0.000833764
0.000193764
0.000821066
0.000118022
0.000812255
6.1105e-05
0.000814026
0.000839059
0.00262501
-7.86767e-19
0.00262501
7.55357e-19
0.00262501
-8.07932e-20
0.00262501
-2.21283e-19
0.00262501
-6.71884e-19
0.00262501
9.31045e-19
0.00262501
-2.04946e-19
0.00262501
-6.2758e-19
0.00262501
-9.64912e-19
0.00262501
-3.13774e-19
0.00262501
-7.5961e-19
0.00262501
-9.6962e-19
0.00262501
-4.33616e-19
0.00262501
1.60272e-19
0.00262501
-6.06056e-19
0.00262501
9.21622e-19
0.00262501
9.90786e-19
0.00262501
1.63275e-18
0.00262501
-1.68793e-19
0.00262501
1.43296e-18
0.00262501
-1.42725e-18
0.00262501
-1.92579e-19
0.00262501
7.18515e-19
0.00262501
-5.31032e-19
0.00262501
-1.17894e-18
0.00262501
-1.41849e-19
0.00262501
2.84628e-20
0.00262501
-7.31898e-19
0.00262501
2.24952e-19
0.00262501
-2.16076e-19
0.00262501
8.79943e-19
0.00262501
4.33541e-19
0.00262501
1.2944e-18
0.00262501
8.37496e-19
0.00262501
-1.62516e-18
0.00262501
-1.87043e-18
0.00262501
2.09115e-18
0.00262501
1.45828e-19
0.00262501
1.95529e-19
0.00262501
6.93064e-19
0.00262501
-5.71056e-19
0.00262501
-1.38006e-18
0.00262501
-1.517e-18
0.00262501
-1.57502e-18
0.00262501
-8.89012e-19
0.00262501
-1.40437e-18
0.00262501
6.59351e-19
0.00262501
2.03162e-19
0.00262501
8.16366e-19
0.00262501
1.02949e-18
0.00262501
8.1147e-19
0.00262501
2.96324e-17
0.00262501
1.12473e-15
0.00262501
1.11216e-13
0.00262501
3.51234e-12
0.00262501
4.35187e-10
0.00262489
9.15126e-09
0.00261846
1.82955e-06
0.00235515
6.53544e-05
0.00211757
0.00105925
0.00211645
0.000950459
0.00222201
0.000739004
0.00232361
0.000459281
0.00232275
0.000386217
0.00224029
0.000471814
0.00207344
0.000719245
0.00196391
0.000877374
0.00191405
0.000848085
0.00189136
0.000760281
0.00185312
0.000706314
0.00179957
0.00072527
0.00171983
0.000767819
0.001633
0.000765409
0.00155789
0.000762453
0.001491
0.000787311
0.0014334
0.000797892
0.00138541
0.000792351
0.00134892
0.0008067
0.00131647
0.000836443
0.00127793
0.000860857
0.0012261
0.000878325
0.00115828
0.000896245
0.00107572
0.000912948
0.000982462
0.000923282
0.00088247
0.000925121
0.0007806
0.000917205
0.000684496
0.000905341
0.000597755
0.000897857
0.000519313
0.000891413
0.000445257
0.000890031
0.000370587
0.00089885
0.000291089
0.000905777
0.000206857
0.000896009
0.00012477
0.000891208
5.20483e-05
0.00089324
0.000890171
0.00262501
4.82802e-20
0.00262501
-3.37671e-19
0.00262501
4.71012e-20
0.00262501
-6.95992e-19
0.00262501
8.56682e-19
0.00262501
4.73287e-19
0.00262501
7.72778e-19
0.00262501
-1.30818e-18
0.00262501
2.08814e-19
0.00262501
1.04569e-18
0.00262501
1.555e-19
0.00262501
-3.83226e-20