/*--------------------------------*- C++ -*----------------------------------*\
| =========                 |                                                 |
| \\      /  F ield         | OpenFOAM: The Open Source CFD Toolbox           |
|  \\    /   O peration     | Version:  v1812                                 |
|   \\  /    A nd           | Web:      www.OpenFOAM.com                      |
|    \\/     M anipulation  |                                                 |
\*---------------------------------------------------------------------------*/
FoamFile
{
    version     2.0;
    format      ascii;
    class       volScalarField;
    location    "0.7";
    object      rho;
}
// * * * * * * * * * * * * * * * * * * * * * * * * * * * * * * * * * * * * * //

dimensions      [1 -3 0 0 0 0 0];


internalField   nonuniform List<scalar> 
64512
(
1.40001
1.40001
1.40001
1.40001
1.40001
1.40001
1.40001
1.40001
1.40001
1.40001
1.40001
1.40001
1.40001
1.40001
1.40001
1.40001
1.40001
1.40001
1.40001
1.40001
1.40001
1.40001
1.40001
1.40001
1.40001
1.40001
1.40001
1.40001
1.40001
1.40001
1.40001
1.40001
1.40001
1.40001
1.40001
1.40001
1.40001
1.40001
1.40001
1.40001
1.40001
1.40001
1.40001
1.40001
1.40001
1.40001
1.40001
1.40001
1.40001
1.40001
1.40001
1.40001
1.40001
1.40001
1.40001
1.40009
1.40619
1.70641
4.7233
5.89669
5.70713
5.57369
5.55404
5.6103
5.67962
5.7522
5.77079
5.74998
5.71046
5.7173
5.75152
5.78745
5.81173
5.81536
5.82754
5.84543
5.86355
5.87534
5.8805
5.87345
5.8525
5.8254
5.81659
5.82539
5.83321
5.82806
5.79982
5.7484
5.67445
5.56833
5.41229
5.24766
5.17906
5.14658
5.0643
5.14031
1.40001
1.40001
1.40001
1.40001
1.40001
1.40001
1.40001
1.40001
1.40001
1.40001
1.40001
1.40001
1.40001
1.40001
1.40001
1.40001
1.40001
1.40001
1.40001
1.40001
1.40001
1.40001
1.40001
1.40001
1.40001
1.40001
1.40001
1.40001
1.40001
1.40001
1.40001
1.40001
1.40001
1.40001
1.40001
1.40001
1.40001
1.40001
1.40001
1.40001
1.40001
1.40001
1.40001
1.40001
1.40001
1.40001
1.40001
1.40001
1.40001
1.40001
1.40001
1.40001
1.40001
1.40001
1.40001
1.40014
1.41054
1.85818
4.6266
5.65092
5.47791
5.38892
5.42544
5.51471
5.61527
5.64326
5.62813
5.5994
5.61077
5.64749
5.69135
5.72338
5.74267
5.76024
5.78108
5.79967
5.81428
5.82821
5.842
5.85235
5.84863
5.83931
5.83757
5.84819
5.85661
5.85082
5.82181
5.77108
5.69942
5.59866
5.4519
5.28143
5.19066
5.15671
5.08663
5.11731
1.40001
1.40001
1.40001
1.40001
1.40001
1.40001
1.40001
1.40001
1.40001
1.40001
1.40001
1.40001
1.40001
1.40001
1.40001
1.40001
1.40001
1.40001
1.40001
1.40001
1.40001
1.40001
1.40001
1.40001
1.40001
1.40001
1.40001
1.40001
1.40001
1.40001
1.40001
1.40001
1.40001
1.40001
1.40001
1.40001
1.40001
1.40001
1.40001
1.40001
1.40001
1.40001
1.40001
1.40001
1.40001
1.40001
1.40001
1.40001
1.40001
1.40001
1.40001
1.40001
1.40001
1.40001
1.40001
1.40008
1.4048
1.63001
4.71253
5.82281
5.59899
5.56397
5.62704
5.76006
5.87814
5.92656
5.89732
5.80608
5.77717
5.80748
5.8524
5.88343
5.8982
5.89815
5.90419
5.91742
5.92489
5.92209
5.91071
5.89971
5.89396
5.88807
5.88283
5.8827
5.8837
5.87706
5.85661
5.81782
5.75816
5.6733
5.55183
5.38792
5.2427
5.17903
5.11444
5.10145
1.40001
1.40001
1.40001
1.40001
1.40001
1.40001
1.40001
1.40001
1.40001
1.40001
1.40001
1.40001
1.40001
1.40001
1.40001
1.40001
1.40001
1.40001
1.40001
1.40001
1.40001
1.40001
1.40001
1.40001
1.40001
1.40001
1.40001
1.40001
1.40001
1.40001
1.40001
1.40001
1.40001
1.40001
1.40001
1.40001
1.40001
1.40001
1.40001
1.40001
1.40001
1.40001
1.40001
1.40001
1.40001
1.40001
1.40001
1.40001
1.40001
1.40001
1.40001
1.40001
1.40001
1.40001
1.40001
1.40016
1.41174
1.89069
4.52025
5.50957
5.37665
5.31615
5.36631
5.45721
5.55982
5.59723
5.59212
5.57579
5.59263
5.6424
5.71393
5.75497
5.77685
5.79243
5.8166
5.84088
5.85558
5.86094
5.86035
5.86102
5.86407
5.86346
5.86095
5.86434
5.87057
5.87295
5.86399
5.83981
5.79672
5.72792
5.62478
5.47641
5.30263
5.19527
5.12802
5.09679
1.40001
1.40001
1.40001
1.40001
1.40001
1.40001
1.40001
1.40001
1.40001
1.40001
1.40001
1.40001
1.40001
1.40001
1.40001
1.40001
1.40001
1.40001
1.40001
1.40001
1.40001
1.40001
1.40001
1.40001
1.40001
1.40001
1.40001
1.40001
1.40001
1.40001
1.40001
1.40001
1.40001
1.40001
1.40001
1.40001
1.40001
1.40001
1.40001
1.40001
1.40001
1.40001
1.40001
1.40001
1.40001
1.40001
1.40001
1.40001
1.40001
1.40001
1.40001
1.40001
1.40001
1.40001
1.40001
1.40007
1.40373
1.58728
4.66817
5.8185
5.44739
5.33859
5.39581
5.57784
5.67717
5.69539
5.62283
5.59224
5.62332
5.67502
5.70419
5.7181
5.73263
5.75153
5.77514
5.7902
5.79616
5.80406
5.81628
5.82976
5.83843
5.83824
5.83889
5.84713
5.85614
5.85958
5.85265
5.83183
5.79507
5.73879
5.65452
5.52611
5.35006
5.21283
5.13204
5.09559
1.40001
1.40001
1.40001
1.40001
1.40001
1.40001
1.40001
1.40001
1.40001
1.40001
1.40001
1.40001
1.40001
1.40001
1.40001
1.40001
1.40001
1.40001
1.40001
1.40001
1.40001
1.40001
1.40001
1.40001
1.40001
1.40001
1.40001
1.40001
1.40001
1.40001
1.40001
1.40001
1.40001
1.40001
1.40001
1.40001
1.40001
1.40001
1.40001
1.40001
1.40001
1.40001
1.40001
1.40001
1.40001
1.40001
1.40001
1.40001
1.40001
1.40001
1.40001
1.40001
1.40001
1.40001
1.40001
1.40004
1.40197
1.52195
4.53344
5.76962
5.48888
5.45441
5.51162
5.6435
5.73999
5.77475
5.70958
5.63539
5.64963
5.69606
5.72887
5.74519
5.75695
5.7848
5.80085
5.8057
5.79202
5.78169
5.78277
5.79106
5.79839
5.803
5.81054
5.82095
5.82915
5.83223
5.82759
5.81204
5.78067
5.72769
5.6493
5.53588
5.36917
5.22125
5.13081
5.09283
1.40001
1.40001
1.40001
1.40001
1.40001
1.40001
1.40001
1.40001
1.40001
1.40001
1.40001
1.40001
1.40001
1.40001
1.40001
1.40001
1.40001
1.40001
1.40001
1.40001
1.40001
1.40001
1.40001
1.40001
1.40001
1.40001
1.40001
1.40001
1.40001
1.40001
1.40001
1.40001
1.40001
1.40001
1.40001
1.40001
1.40001
1.40001
1.40001
1.40001
1.40001
1.40001
1.40001
1.40001
1.40001
1.40001
1.40001
1.40001
1.40001
1.40001
1.40001
1.40001
1.40001
1.40001
1.40001
1.40003
1.40164
1.50306
4.32782
5.68893
5.52912
5.53138
5.59559
5.70015
5.77222
5.80344
5.77179
5.70804
5.70909
5.74427
5.77693
5.79929
5.80332
5.80204
5.80868
5.81043
5.79988
5.78762
5.784
5.78552
5.79047
5.79841
5.80684
5.81001
5.80497
5.79824
5.79222
5.78193
5.75653
5.70839
5.63502
5.52443
5.35994
5.21428
5.12396
5.08865
1.40001
1.40001
1.40001
1.40001
1.40001
1.40001
1.40001
1.40001
1.40001
1.40001
1.40001
1.40001
1.40001
1.40001
1.40001
1.40001
1.40001
1.40001
1.40001
1.40001
1.40001
1.40001
1.40001
1.40001
1.40001
1.40001
1.40001
1.40001
1.40001
1.40001
1.40001
1.40001
1.40001
1.40001
1.40001
1.40001
1.40001
1.40001
1.40001
1.40001
1.40001
1.40001
1.40001
1.40001
1.40001
1.40001
1.40001
1.40001
1.40001
1.40001
1.40001
1.40001
1.40001
1.40001
1.40001
1.40003
1.40156
1.49799
4.22985
5.54614
5.46236
5.48001
5.55107
5.65834
5.718
5.74279
5.71959
5.67118
5.68927
5.73099
5.77809
5.80799
5.81852
5.81807
5.82379
5.83106
5.82717
5.81187
5.79611
5.78911
5.79114
5.79956
5.80775
5.8083
5.79606
5.77491
5.7598
5.74829
5.72578
5.6825
5.61446
5.50678
5.34385
5.20228
5.11299
5.08363
1.40001
1.40001
1.40001
1.40001
1.40001
1.40001
1.40001
1.40001
1.40001
1.40001
1.40001
1.40001
1.40001
1.40001
1.40001
1.40001
1.40001
1.40001
1.40001
1.40001
1.40001
1.40001
1.40001
1.40001
1.40001
1.40001
1.40001
1.40001
1.40001
1.40001
1.40001
1.40001
1.40001
1.40001
1.40001
1.40001
1.40001
1.40001
1.40001
1.40001
1.40001
1.40001
1.40001
1.40001
1.40001
1.40001
1.40001
1.40001
1.40001
1.40001
1.40001
1.40001
1.40001
1.40001
1.40001
1.40003
1.40145
1.49137
4.09074
5.45197
5.41586
5.4447
5.53438
5.66024
5.71247
5.72163
5.68679
5.6459
5.67441
5.71404
5.76297
5.79012
5.7987
5.79926
5.81011
5.82189
5.8254
5.82063
5.81005
5.8036
5.80561
5.81411
5.82081
5.81596
5.79542
5.76875
5.74398
5.72256
5.69608
5.65522
5.59136
5.4854
5.32286
5.1868
5.09947
5.08028
1.40001
1.40001
1.40001
1.40001
1.40001
1.40001
1.40001
1.40001
1.40001
1.40001
1.40001
1.40001
1.40001
1.40001
1.40001
1.40001
1.40001
1.40001
1.40001
1.40001
1.40001
1.40001
1.40001
1.40001
1.40001
1.40001
1.40001
1.40001
1.40001
1.40001
1.40001
1.40001
1.40001
1.40001
1.40001
1.40001
1.40001
1.40001
1.40001
1.40001
1.40001
1.40001
1.40001
1.40001
1.40001
1.40001
1.40001
1.40001
1.40001
1.40001
1.40001
1.40001
1.40001
1.40001
1.40001
1.40003
1.40135
1.48503
3.95183
5.36757
5.38646
5.43703
5.54009
5.68349
5.71768
5.71678
5.65306
5.62327
5.66039
5.71098
5.75048
5.76821
5.77008
5.773
5.78986
5.8054
5.81036
5.80856
5.80792
5.81037
5.81559
5.82355
5.82883
5.82142
5.79621
5.7644
5.73677
5.71237
5.68238
5.64069
5.57696
5.46648
5.3006
5.16964
5.08026
5.07556
1.40001
1.40001
1.40001
1.40001
1.40001
1.40001
1.40001
1.40001
1.40001
1.40001
1.40001
1.40001
1.40001
1.40001
1.40001
1.40001
1.40001
1.40001
1.40001
1.40001
1.40001
1.40001
1.40001
1.40001
1.40001
1.40001
1.40001
1.40001
1.40001
1.40001
1.40001
1.40001
1.40001
1.40001
1.40001
1.40001
1.40001
1.40001
1.40001
1.40001
1.40001
1.40001
1.40001
1.40001
1.40001
1.40001
1.40001
1.40001
1.40001
1.40001
1.40001
1.40001
1.40001
1.40001
1.40001
1.40002
1.40123
1.47794
3.78768
5.29358
5.38183
5.43839
5.57016
5.70108
5.72987
5.70554
5.62815
5.60803
5.64974
5.70522
5.74098
5.75377
5.74962
5.75269
5.77189
5.78769
5.79236
5.79392
5.79809
5.80696
5.81696
5.8269
5.83325
5.82743
5.80247
5.76719
5.73472
5.70629
5.67397
5.63119
5.5667
5.45436
5.28589
5.15909
5.06717
5.06471
1.40001
1.40001
1.40001
1.40001
1.40001
1.40001
1.40001
1.40001
1.40001
1.40001
1.40001
1.40001
1.40001
1.40001
1.40001
1.40001
1.40001
1.40001
1.40001
1.40001
1.40001
1.40001
1.40001
1.40001
1.40001
1.40001
1.40001
1.40001
1.40001
1.40001
1.40001
1.40001
1.40001
1.40001
1.40001
1.40001
1.40001
1.40001
1.40001
1.40001
1.40001
1.40001
1.40001
1.40001
1.40001
1.40001
1.40001
1.40001
1.40001
1.40001
1.40001
1.40001
1.40001
1.40001
1.40001
1.40002
1.40111
1.47068
3.59649
5.13283
5.34324
5.42948
5.60312
5.69292
5.71278
5.65684
5.5901
5.59091
5.64794
5.70712
5.73996
5.74553
5.73711
5.74157
5.76153
5.77733
5.78127
5.78126
5.78782
5.79909
5.81103
5.82232
5.83064
5.82958
5.81007
5.77625
5.74016
5.70631
5.67015
5.62524
5.55951
5.44551
5.27612
5.15032
5.05578
5.05723
1.40001
1.40001
1.40001
1.40001
1.40001
1.40001
1.40001
1.40001
1.40001
1.40001
1.40001
1.40001
1.40001
1.40001
1.40001
1.40001
1.40001
1.40001
1.40001
1.40001
1.40001
1.40001
1.40001
1.40001
1.40001
1.40001
1.40001
1.40001
1.40001
1.40001
1.40001
1.40001
1.40001
1.40001
1.40001
1.40001
1.40001
1.40001
1.40001
1.40001
1.40001
1.40001
1.40001
1.40001
1.40001
1.40001
1.40001
1.40001
1.40001
1.40001
1.40001
1.40001
1.40001
1.40001
1.40001
1.40002
1.40096
1.46179
3.37313
4.98935
5.34227
5.45971
5.65524
5.70213
5.69777
5.61432
5.56412
5.58463
5.65524
5.71098
5.73949
5.73687
5.72516
5.73291
5.7548
5.77083
5.77433
5.77282
5.77878
5.78939
5.80007
5.811
5.82075
5.82435
5.81265
5.7847
5.74953
5.71236
5.67162
5.62322
5.55507
5.43911
5.26799
5.1425
5.05
5.04312
1.40001
1.40001
1.40001
1.40001
1.40001
1.40001
1.40001
1.40001
1.40001
1.40001
1.40001
1.40001
1.40001
1.40001
1.40001
1.40001
1.40001
1.40001
1.40001
1.40001
1.40001
1.40001
1.40001
1.40001
1.40001
1.40001
1.40001
1.40001
1.40001
1.40001
1.40001
1.40001
1.40001
1.40001
1.40001
1.40001
1.40001
1.40001
1.40001
1.40001
1.40001
1.40001
1.40001
1.40001
1.40001
1.40001
1.40001
1.40001
1.40001
1.40001
1.40001
1.40001
1.40001
1.40001
1.40001
1.40002
1.40079
1.45205
3.11634
4.84272
5.35024
5.52812
5.68568
5.70803
5.66055
5.56664
5.54185
5.58236
5.66551
5.71293
5.73651
5.7258
5.71205
5.72565
5.75071
5.76838
5.77163
5.76685
5.7697
5.77835
5.78729
5.79661
5.80568
5.81057
5.80434
5.7843
5.75509
5.71974
5.67676
5.62425
5.55278
5.43456
5.25981
5.12988
5.03937
5.03717
1.40001
1.40001
1.40001
1.40001
1.40001
1.40001
1.40001
1.40001
1.40001
1.40001
1.40001
1.40001
1.40001
1.40001
1.40001
1.40001
1.40001
1.40001
1.40001
1.40001
1.40001
1.40001
1.40001
1.40001
1.40001
1.40001
1.40001
1.40001
1.40001
1.40001
1.40001
1.40001
1.40001
1.40001
1.40001
1.40001
1.40001
1.40001
1.40001
1.40001
1.40001
1.40001
1.40001
1.40001
1.40001
1.40001
1.40001
1.40001
1.40001
1.40001
1.40001
1.40001
1.40001
1.40001
1.40001
1.40001
1.40058
1.43949
2.79599
4.73776
5.41001
5.64668
5.69923
5.70505
5.60241
5.52659
5.52669
5.58592
5.67934
5.71121
5.72869
5.7101
5.69658
5.71792
5.74546
5.76513
5.76894
5.76124
5.76005
5.76611
5.77302
5.78068
5.7884
5.79225
5.78606
5.771
5.75035
5.7219
5.68063
5.62536
5.55013
5.42963
5.25259
5.11983
5.03039
5.02582
1.40001
1.40001
1.40001
1.40001
1.40001
1.40001
1.40001
1.40001
1.40001
1.40001
1.40001
1.40001
1.40001
1.40001
1.40001
1.40001
1.40001
1.40001
1.40001
1.40001
1.40001
1.40001
1.40001
1.40001
1.40001
1.40001
1.40001
1.40001
1.40001
1.40001
1.40001
1.40001
1.40001
1.40001
1.40001
1.40001
1.40001
1.40001
1.40001
1.40001
1.40001
1.40001
1.40001
1.40001
1.40001
1.40001
1.40001
1.40001
1.40001
1.40001
1.40001
1.40001
1.40001
1.40001
1.40001
1.40001
1.40034
1.42428
2.36293
4.61889
5.59034
5.72643
5.73067
5.65639
5.53542
5.49845
5.5217
5.59854
5.69317
5.7079
5.7139
5.68774
5.68038
5.70752
5.73869
5.75969
5.76385
5.75489
5.75132
5.7544
5.75904
5.76513
5.77135
5.77362
5.76618
5.75255
5.73739
5.71586
5.67901
5.62316
5.54506
5.42267
5.24405
5.10845
5.01931
5.01413
1.40001
1.40001
1.40001
1.40001
1.40001
1.40001
1.40001
1.40001
1.40001
1.40001
1.40001
1.40001
1.40001
1.40001
1.40001
1.40001
1.40001
1.40001
1.40001
1.40001
1.40001
1.40001
1.40001
1.40001
1.40001
1.40001
1.40001
1.40001
1.40001
1.40001
1.40001
1.40001
1.40001
1.40001
1.40001
1.40001
1.40001
1.40001
1.40001
1.40001
1.40001
1.40001
1.40001
1.40001
1.40001
1.40001
1.40001
1.40001
1.40001
1.40001
1.40001
1.40001
1.40001
1.40001
1.40001
1.40001
1.40015
1.41056
1.89816
4.53736
5.78863
5.77653
5.70182
5.56923
5.48007
5.47813
5.52943
5.62219
5.6978
5.70606
5.69369
5.65946
5.6647
5.69662
5.73124
5.7527
5.7564
5.74791
5.74435
5.74558
5.74759
5.75127
5.75524
5.75511
5.74589
5.73261
5.72029
5.70327
5.67062
5.6162
5.53716
5.41413
5.23482
5.09632
5.00656
5.00121
1.40001
1.40001
1.40001
1.40001
1.40001
1.40001
1.40001
1.40001
1.40001
1.40001
1.40001
1.40001
1.40001
1.40001
1.40001
1.40001
1.40001
1.40001
1.40001
1.40001
1.40001
1.40001
1.40001
1.40001
1.40001
1.40001
1.40001
1.40001
1.40001
1.40001
1.40001
1.40001
1.40001
1.40001
1.40001
1.40001
1.40001
1.40001
1.40001
1.40001
1.40001
1.40001
1.40001
1.40001
1.40001
1.40001
1.40001
1.40001
1.40001
1.40001
1.40001
1.40001
1.40001
1.40001
1.40001
1.40001
1.40005
1.40282
1.57833
4.47575
5.78836
5.74691
5.5988
5.47312
5.43899
5.47311
5.54478
5.65411
5.69363
5.7011
5.66715
5.63026
5.65046
5.68789
5.72483
5.74575
5.74804
5.74102
5.73931
5.74004
5.73919
5.73939
5.74027
5.73699
5.72575
5.71233
5.70147
5.68686
5.65706
5.60466
5.52616
5.40362
5.22394
5.08204
4.99095
4.98682
1.40001
1.40001
1.40001
1.40001
1.40001
1.40001
1.40001
1.40001
1.40001
1.40001
1.40001
1.40001
1.40001
1.40001
1.40001
1.40001
1.40001
1.40001
1.40001
1.40001
1.40001
1.40001
1.40001
1.40001
1.40001
1.40001
1.40001
1.40001
1.40001
1.40001
1.40001
1.40001
1.40001
1.40001
1.40001
1.40001
1.40001
1.40001
1.40001
1.40001
1.40001
1.40001
1.40001
1.40001
1.40001
1.40001
1.40001
1.40001
1.40001
1.40001
1.40001
1.40001
1.40001
1.40001
1.40001
1.40001
1.40003
1.40159
1.50133
4.20051
5.76437
5.62759
5.47363
5.398
5.41541
5.46958
5.57587
5.68337
5.69116
5.68348
5.63249
5.6047
5.63707
5.68251
5.72024
5.73968
5.7394
5.73396
5.73504
5.73621
5.73297
5.72902
5.72587
5.71908
5.70572
5.69171
5.68135
5.66792
5.64009
5.59007
5.51329
5.39205
5.21188
5.06546
4.97319
4.97324
1.40001
1.40001
1.40001
1.40001
1.40001
1.40001
1.40001
1.40001
1.40001
1.40001
1.40001
1.40001
1.40001
1.40001
1.40001
1.40001
1.40001
1.40001
1.40001
1.40001
1.40001
1.40001
1.40001
1.40001
1.40001
1.40001
1.40001
1.40001
1.40001
1.40001
1.40001
1.40001
1.40001
1.40001
1.40001
1.40001
1.40001
1.40001
1.40001
1.40001
1.40001
1.40001
1.40001
1.40001
1.40001
1.40001
1.40001
1.40001
1.40001
1.40001
1.40001
1.40001
1.40001
1.40001
1.40001
1.40001
1.40002
1.40128
1.48118
3.84883
5.6524
5.48558
5.36375
5.3553
5.40056
5.48902
5.62268
5.68839
5.69134
5.65192
5.59111
5.58194
5.62558
5.67944
5.71665
5.73388
5.73003
5.72581
5.72988
5.7318
5.72706
5.71894
5.7115
5.70147
5.68643
5.67162
5.66084
5.64751
5.6208
5.57321
5.49951
5.38143
5.20061
5.04568
4.95113
4.95662
1.40001
1.40001
1.40001
1.40001
1.40001
1.40001
1.40001
1.40001
1.40001
1.40001
1.40001
1.40001
1.40001
1.40001
1.40001
1.40001
1.40001
1.40001
1.40001
1.40001
1.40001
1.40001
1.40001
1.40001
1.40001
1.40001
1.40001
1.40001
1.40001
1.40001
1.40001
1.40001
1.40001
1.40001
1.40001
1.40001
1.40001
1.40001
1.40001
1.40001
1.40001
1.40001
1.40001
1.40001
1.40001
1.40001
1.40001
1.40001
1.40001
1.40001
1.40001
1.40001
1.40001
1.40001
1.40001
1.40001
1.40002
1.40105
1.46669
3.50878
5.43315
5.33233
5.30062
5.3324
5.40774
5.54241
5.66626
5.68141
5.67059
5.59926
5.5503
5.56209
5.6195
5.67671
5.71234
5.72615
5.71842
5.71536
5.72197
5.72442
5.71885
5.70723
5.69629
5.68415
5.66833
5.65247
5.64022
5.62588
5.59941
5.55379
5.4832
5.36998
5.19242
5.03252
4.93093
4.92965
1.40001
1.40001
1.40001
1.40001
1.40001
1.40001
1.40001
1.40001
1.40001
1.40001
1.40001
1.40001
1.40001
1.40001
1.40001
1.40001
1.40001
1.40001
1.40001
1.40001
1.40001
1.40001
1.40001
1.40001
1.40001
1.40001
1.40001
1.40001
1.40001
1.40001
1.40001
1.40001
1.40001
1.40001
1.40001
1.40001
1.40001
1.40001
1.40001
1.40001
1.40001
1.40001
1.40001
1.40001
1.40001
1.40001
1.40001
1.40001
1.40001
1.40001
1.40001
1.40001
1.40001
1.40001
1.40001
1.40001
1.40002
1.40085
1.45483
3.21373
5.14553
5.25347
5.26796
5.33513
5.46157
5.61538
5.66647
5.67664
5.61629
5.53633
5.52071
5.55053
5.62211
5.67255
5.7043
5.7129
5.70086
5.7027
5.7103
5.7126
5.70664
5.69254
5.67924
5.66657
5.65117
5.63436
5.61962
5.603
5.57583
5.5318
5.46476
5.35723
5.18379
5.01893
4.90935
4.90322
1.40001
1.40001
1.40001
1.40001
1.40001
1.40001
1.40001
1.40001
1.40001
1.40001
1.40001
1.40001
1.40001
1.40001
1.40001
1.40001
1.40001
1.40001
1.40001
1.40001
1.40001
1.40001
1.40001
1.40001
1.40001
1.40001
1.40001
1.40001
1.40001
1.40001
1.40001
1.40001
1.40001
1.40001
1.40001
1.40001
1.40001
1.40001
1.40001
1.40001
1.40001
1.40001
1.40001
1.40001
1.40001
1.40001
1.40001
1.40001
1.40001
1.40001
1.40001
1.40001
1.40001
1.40001
1.40001
1.40001
1.40001
1.40063
1.44089
2.83011
4.93277
5.21884
5.28758
5.40114
5.54807
5.62506
5.6585
5.63087
5.54034
5.49432
5.49983
5.55188
5.63023
5.66764
5.69172
5.6913
5.67824
5.68604
5.69475
5.69716
5.69021
5.67444
5.65967
5.64774
5.63378
5.61657
5.59883
5.57863
5.54951
5.50624
5.44292
5.34226
5.17543
5.00707
4.88267
4.87446
1.40001
1.40001
1.40001
1.40001
1.40001
1.40001
1.40001
1.40001
1.40001
1.40001
1.40001
1.40001
1.40001
1.40001
1.40001
1.40001
1.40001
1.40001
1.40001
1.40001
1.40001
1.40001
1.40001
1.40001
1.40001
1.40001
1.40001
1.40001
1.40001
1.40001
1.40001
1.40001
1.40001
1.40001
1.40001
1.40001
1.40001
1.40001
1.40001
1.40001
1.40001
1.40001
1.40001
1.40001
1.40001
1.40001
1.40001
1.40001
1.40001
1.40001
1.40001
1.40001
1.40001
1.40001
1.40001
1.40001
1.40001
1.40037
1.42488
2.36663
4.81923
5.23637
5.3505
5.47935
5.55951
5.61085
5.60759
5.53276
5.47069
5.47432
5.50181
5.56978
5.63624
5.66372
5.67485
5.66355
5.65429
5.6654
5.67665
5.67929
5.6709
5.65323
5.63745
5.62667
5.61439
5.59732
5.57687
5.55265
5.52074
5.47716
5.41636
5.32178
5.16227
4.99202
4.85792
4.83725
1.40001
1.40001
1.40001
1.40001
1.40001
1.40001
1.40001
1.40001
1.40001
1.40001
1.40001
1.40001
1.40001
1.40001
1.40001
1.40001
1.40001
1.40001
1.40001
1.40001
1.40001
1.40001
1.40001
1.40001
1.40001
1.40001
1.40001
1.40001
1.40001
1.40001
1.40001
1.40001
1.40001
1.40001
1.40001
1.40001
1.40001
1.40001
1.40001
1.40001
1.40001
1.40001
1.40001
1.40001
1.40001
1.40001
1.40001
1.40001
1.40001
1.40001
1.40001
1.40001
1.40001
1.40001
1.40001
1.40001
1.40001
1.40015
1.41013
1.86447
4.77309
5.30812
5.47276
5.54783
5.5542
5.52614
5.47735
5.43087
5.44623
5.46734
5.5201
5.6001
5.63767
5.65694
5.64981
5.62989
5.62944
5.64303
5.65689
5.65937
5.6492
5.62954
5.61283
5.60262
5.59124
5.57419
5.55169
5.52381
5.4886
5.44407
5.3855
5.29575
5.14129
4.96794
4.82756
4.79642
1.40001
1.40001
1.40001
1.40001
1.40001
1.40001
1.40001
1.40001
1.40001
1.40001
1.40001
1.40001
1.40001
1.40001
1.40001
1.40001
1.40001
1.40001
1.40001
1.40001
1.40001
1.40001
1.40001
1.40001
1.40001
1.40001
1.40001
1.40001
1.40001
1.40001
1.40001
1.40001
1.40001
1.40001
1.40001
1.40001
1.40001
1.40001
1.40001
1.40001
1.40001
1.40001
1.40001
1.40001
1.40001
1.40001
1.40001
1.40001
1.40001
1.40001
1.40001
1.40001
1.40001
1.40001
1.40001
1.40001
1.40001
1.40004
1.40233
1.53824
4.42268
5.38249
5.49809
5.50354
5.45211
5.41057
5.39736
5.40999
5.43724
5.47685
5.556
5.62254
5.63147
5.63575
5.61324
5.59338
5.6043
5.62106
5.63674
5.63789
5.6253
5.60376
5.58581
5.57514
5.56379
5.54592
5.52175
5.49112
5.45292
5.40729
5.35023
5.26411
5.11359
4.93717
4.7881
4.75347
1.40001
1.40001
1.40001
1.40001
1.40001
1.40001
1.40001
1.40001
1.40001
1.40001
1.40001
1.40001
1.40001
1.40001
1.40001
1.40001
1.40001
1.40001
1.40001
1.40001
1.40001
1.40001
1.40001
1.40001
1.40001
1.40001
1.40001
1.40001
1.40001
1.40001
1.40001
1.40001
1.40001
1.40001
1.40001
1.40001
1.40001
1.40001
1.40001
1.40001
1.40001
1.40001
1.40001
1.40001
1.40001
1.40001
1.40001
1.40001
1.40001
1.40001
1.40001
1.40001
1.40001
1.40001
1.40001
1.40001
1.40001
1.40002
1.40127
1.4808
3.79939
5.22414
5.4416
5.47314
5.43361
5.39812
5.39158
5.40628
5.44412
5.50533
5.58156
5.6048
5.61177
5.59657
5.56597
5.56016
5.57896
5.6015
5.61667
5.61481
5.59912
5.57528
5.55636
5.54472
5.53167
5.51217
5.48635
5.45399
5.41346
5.36528
5.30705
5.22346
5.07826
4.89689
4.75774
4.68915
1.40001
1.40001
1.40001
1.40001
1.40001
1.40001
1.40001
1.40001
1.40001
1.40001
1.40001
1.40001
1.40001
1.40001
1.40001
1.40001
1.40001
1.40001
1.40001
1.40001
1.40001
1.40001
1.40001
1.40001
1.40001
1.40001
1.40001
1.40001
1.40001
1.40001
1.40001
1.40001
1.40001
1.40001
1.40001
1.40001
1.40001
1.40001
1.40001
1.40001
1.40001
1.40001
1.40001
1.40001
1.40001
1.40001
1.40001
1.40001
1.40001
1.40001
1.40001
1.40001
1.40001
1.40001
1.40001
1.40001
1.40001
1.40002
1.40087
1.4568
3.24804
4.98425
5.40676
5.46005
5.45494
5.42141
5.41035
5.42158
5.46776
5.53063
5.56555
5.57973
5.57046
5.53748
5.51932
5.53219
5.55753
5.58524
5.59605
5.59037
5.57027
5.5439
5.52461
5.51128
5.49561
5.47337
5.4457
5.41227
5.37026
5.319
5.25798
5.17579
5.0377
4.85261
4.68781
4.63178
1.40001
1.40001
1.40001
1.40001
1.40001
1.40001
1.40001
1.40001
1.40001
1.40001
1.40001
1.40001
1.40001
1.40001
1.40001
1.40001
1.40001
1.40001
1.40001
1.40001
1.40001
1.40001
1.40001
1.40001
1.40001
1.40001
1.40001
1.40001
1.40001
1.40001
1.40001
1.40001
1.40001
1.40001
1.40001
1.40001
1.40001
1.40001
1.40001
1.40001
1.40001
1.40001
1.40001
1.40001
1.40001
1.40001
1.40001
1.40001
1.40001
1.40001
1.40001
1.40001
1.40001
1.40001
1.40001
1.40001
1.40001
1.40001
1.4005
1.43424
2.65212
4.79702
5.44488
5.52017
5.53227
5.51192
5.47346
5.46742
5.49869
5.53513
5.54226
5.52098
5.49118
5.47399
5.48625
5.50871
5.54411
5.57113
5.5748
5.56342
5.53768
5.51014
5.49105
5.47556
5.45658
5.43071
5.40062
5.36619
5.32285
5.26792
5.20217
5.11749
4.98133
4.79392
4.61401
4.53882
1.40001
1.40001
1.40001
1.40001
1.40001
1.40001
1.40001
1.40001
1.40001
1.40001
1.40001
1.40001
1.40001
1.40001
1.40001
1.40001
1.40001
1.40001
1.40001
1.40001
1.40001
1.40001
1.40001
1.40001
1.40001
1.40001
1.40001
1.40001
1.40001
1.40001
1.40001
1.40001
1.40001
1.40001
1.40001
1.40001
1.40001
1.40001
1.40001
1.40001
1.40001
1.40001
1.40001
1.40001
1.40001
1.40001
1.40001
1.40001
1.40001
1.40001
1.40001
1.40001
1.40001
1.40001
1.40001
1.40001
1.40001
1.40001
1.40019
1.4131
1.99762
4.71911
5.48112
5.5509
5.57171
5.58673
5.57012
5.53657
5.52604
5.51801
5.49124
5.45532
5.43678
5.44249
5.45904
5.49332
5.53437
5.5544
5.55116
5.53199
5.50087
5.47485
5.45586
5.43798
5.4154
5.38528
5.35192
5.31566
5.27027
5.21058
5.13799
5.04939
4.91465
4.71948
4.51877
4.40156
1.40001
1.40001
1.40001
1.40001
1.40001
1.40001
1.40001
1.40001
1.40001
1.40001
1.40001
1.40001
1.40001
1.40001
1.40001
1.40001
1.40001
1.40001
1.40001
1.40001
1.40001
1.40001
1.40001
1.40001
1.40001
1.40001
1.40001
1.40001
1.40001
1.40001
1.40001
1.40001
1.40001
1.40001
1.40001
1.40001
1.40001
1.40001
1.40001
1.40001
1.40001
1.40001
1.40001
1.40001
1.40001
1.40001
1.40001
1.40001
1.40001
1.40001
1.40001
1.40001
1.40001
1.40001
1.40001
1.40001
1.40001
1.40001
1.40005
1.40251
1.55152
4.48512
5.3977
5.46772
5.49431
5.52562
5.54256
5.52277
5.50464
5.49026
5.46256
5.42984
5.41395
5.41906
5.43868
5.48163
5.51788
5.52717
5.51858
5.49278
5.46082
5.43892
5.41951
5.39901
5.37291
5.33811
5.30051
5.26115
5.21282
5.148
5.06635
4.96703
4.82192
4.60327
4.36259
4.21805
1.40001
1.40001
1.40001
1.40001
1.40001
1.40001
1.40001
1.40001
1.40001
1.40001
1.40001
1.40001
1.40001
1.40001
1.40001
1.40001
1.40001
1.40001
1.40001
1.40001
1.40001
1.40001
1.40001
1.40001
1.40001
1.40001
1.40001
1.40001
1.40001
1.40001
1.40001
1.40001
1.40001
1.40001
1.40001
1.40001
1.40001
1.40001
1.40001
1.40001
1.40001
1.40001
1.40001
1.40001
1.40001
1.40001
1.40001
1.40001
1.40001
1.40001
1.40001
1.40001
1.40001
1.40001
1.40001
1.40001
1.40001
1.40001
1.40002
1.40122
1.4784
3.77602
5.20792
5.37346
5.38134
5.43158
5.48192
5.47585
5.48118
5.47848
5.45923
5.4313
5.41115
5.40996
5.42751
5.46258
5.48535
5.48676
5.47414
5.44692
5.42148
5.40237
5.38357
5.36017
5.33008
5.28996
5.24695
5.2029
5.15012
5.0791
4.98534
4.86836
4.70826
4.4657
4.17776
3.89296
1.40001
1.40001
1.40001
1.40001
1.40001
1.40001
1.40001
1.40001
1.40001
1.40001
1.40001
1.40001
1.40001
1.40001
1.40001
1.40001
1.40001
1.40001
1.40001
1.40001
1.40001
1.40001
1.40001
1.40001
1.40001
1.40001
1.40001
1.40001
1.40001
1.40001
1.40001
1.40001
1.40001
1.40001
1.40001
1.40001
1.40001
1.40001
1.40001
1.40001
1.40001
1.40001
1.40001
1.40001
1.40001
1.40001
1.40001
1.40001
1.40001
1.40001
1.40001
1.40001
1.40001
1.40001
1.40001
1.40001
1.40001
1.40001
1.40002
1.40072
1.4481
3.04294
5.04621
5.35664
5.36594
5.39451
5.42344
5.43383
5.4554
5.47531
5.47576
5.46518
5.43973
5.42316
5.42679
5.44132
5.44604
5.43801
5.42042
5.39958
5.38261
5.36673
5.34948
5.32291
5.28772
5.24143
5.19153
5.14182
5.08253
5.00434
4.89808
4.75931
4.57125
4.2567
3.78687
2.92157
1.40001
1.40001
1.40001
1.40001
1.40001
1.40001
1.40001
1.40001
1.40001
1.40001
1.40001
1.40001
1.40001
1.40001
1.40001
1.40001
1.40001
1.40001
1.40001
1.40001
1.40001
1.40001
1.40001
1.40001
1.40001
1.40001
1.40001
1.40001
1.40001
1.40001
1.40001
1.40001
1.40001
1.40001
1.40001
1.40001
1.40001
1.40001
1.40001
1.40001
1.40001
1.40001
1.40001
1.40001
1.40001
1.40001
1.40001
1.40001
1.40001
1.40001
1.40001
1.40001
1.40001
1.40001
1.40001
1.40001
1.40001
1.40001
1.40001
1.40029
1.41973
2.23402
4.96592
5.47855
5.4128
5.38724
5.40227
5.40072
5.43265
5.46783
5.48158
5.48283
5.472
5.45299
5.43685
5.42278
5.40504
5.38099
5.36592
5.3538
5.34289
5.33223
5.31665
5.28716
5.24656
5.19343
5.13651
5.07892
5.01195
4.92454
4.80441
4.64054
4.41221
4.04358
3.49677
2.5659
1.40001
1.40001
1.40001
1.40001
1.40001
1.40001
1.40001
1.40001
1.40001
1.40001
1.40001
1.40001
1.40001
1.40001
1.40001
1.40001
1.40001
1.40001
1.40001
1.40001
1.40001
1.40001
1.40001
1.40001
1.40001
1.40001
1.40001
1.40001
1.40001
1.40001
1.40001
1.40001
1.40001
1.40001
1.40001
1.40001
1.40001
1.40001
1.40001
1.40001
1.40001
1.40001
1.40001
1.40001
1.40001
1.40001
1.40001
1.40001
1.40001
1.40001
1.40001
1.40001
1.40001
1.40001
1.40001
1.40001
1.40001
1.40001
1.40001
1.40007
1.40339
1.59596
4.61645
5.54405
5.47695
5.42972
5.4041
5.39932
5.4265
5.45639
5.46502
5.46998
5.47311
5.45611
5.42463
5.39081
5.3596
5.33083
5.3179
5.3089
5.30226
5.29655
5.28279
5.25176
5.20588
5.14656
5.08335
5.01567
4.93946
4.84212
4.70895
4.52399
4.27047
3.89785
3.32596
2.57349
1.40001
1.40001
1.40001
1.40001
1.40001
1.40001
1.40001
1.40001
1.40001
1.40001
1.40001
1.40001
1.40001
1.40001
1.40001
1.40001
1.40001
1.40001
1.40001
1.40001
1.40001
1.40001
1.40001
1.40001
1.40001
1.40001
1.40001
1.40001
1.40001
1.40001
1.40001
1.40001
1.40001
1.40001
1.40001
1.40001
1.40001
1.40001
1.40001
1.40001
1.40001
1.40001
1.40001
1.40001
1.40001
1.40001
1.40001
1.40001
1.40001
1.40001
1.40001
1.40001
1.40001
1.40001
1.40001
1.40001
1.40001
1.40001
1.40001
1.40002
1.40131
1.48337
3.83001
5.28346
5.38213
5.4115
5.41794
5.39941
5.40568
5.41448
5.41413
5.41865
5.42815
5.42096
5.39821
5.36518
5.32797
5.29251
5.27714
5.26614
5.25996
5.25587
5.24234
5.21197
5.16372
5.10066
5.03053
4.9538
4.86798
4.76109
4.61862
4.42268
4.16375
3.8105
3.31522
2.76258
1.40001
1.40001
1.40001
1.40001
1.40001
1.40001
1.40001
1.40001
1.40001
1.40001
1.40001
1.40001
1.40001
1.40001
1.40001
1.40001
1.40001
1.40001
1.40001
1.40001
1.40001
1.40001
1.40001
1.40001
1.40001
1.40001
1.40001
1.40001
1.40001
1.40001
1.40001
1.40001
1.40001
1.40001
1.40001
1.40001
1.40001
1.40001
1.40001
1.40001
1.40001
1.40001
1.40001
1.40001
1.40001
1.40001
1.40001
1.40001
1.40001
1.40001
1.40001
1.40001
1.40001
1.40001
1.40001
1.40001
1.40001
1.40001
1.40001
1.40002
1.40072
1.4474
3.04596
5.04166
5.31158
5.34743
5.38972
5.39211
5.40157
5.4015
5.38992
5.38929
5.3926
5.38931
5.37075
5.34362
5.31012
5.27307
5.24808
5.23125
5.21945
5.21017
5.1931
5.16243
5.11553
5.05308
4.97903
4.89534
4.80092
4.68556
4.53772
4.34061
4.0868
3.76978
3.3307
2.85859
1.40001
1.40001
1.40001
1.40001
1.40001
1.40001
1.40001
1.40001
1.40001
1.40001
1.40001
1.40001
1.40001
1.40001
1.40001
1.40001
1.40001
1.40001
1.40001
1.40001
1.40001
1.40001
1.40001
1.40001
1.40001
1.40001
1.40001
1.40001
1.40001
1.40001
1.40001
1.40001
1.40001
1.40001
1.40001
1.40001
1.40001
1.40001
1.40001
1.40001
1.40001
1.40001
1.40001
1.40001
1.40001
1.40001
1.40001
1.40001
1.40001
1.40001
1.40001
1.40001
1.40001
1.40001
1.40001
1.40001
1.40001
1.40001
1.40001
1.40001
1.40027
1.41809
2.18809
4.95965
5.32423
5.33162
5.36813
5.37494
5.39114
5.39638
5.37509
5.35864
5.35416
5.35045
5.33499
5.31827
5.29479
5.26628
5.2359
5.2092
5.18623
5.16527
5.13969
5.10518
5.05967
5.00063
4.92722
4.84017
4.7397
4.61799
4.46784
4.27645
4.03332
3.73996
3.35056
2.93728
1.40001
1.40001
1.40001
1.40001
1.40001
1.40001
1.40001
1.40001
1.40001
1.40001
1.40001
1.40001
1.40001
1.40001
1.40001