/*--------------------------------*- C++ -*----------------------------------*\
| =========                 |                                                 |
| \\      /  F ield         | OpenFOAM: The Open Source CFD Toolbox           |
|  \\    /   O peration     | Version:  v1812                                 |
|   \\  /    A nd           | Web:      www.OpenFOAM.com                      |
|    \\/     M anipulation  |                                                 |
\*---------------------------------------------------------------------------*/
FoamFile
{
    version     2.0;
    format      ascii;
    class       volScalarField;
    location    "0.7";
    object      T;
}
// * * * * * * * * * * * * * * * * * * * * * * * * * * * * * * * * * * * * * //

dimensions      [0 0 0 1 0 0 0];


internalField   nonuniform List<scalar> 
64512
(
1
1
1
1
1
1
1
1
1
1
1
1
1
1
1
1
1
1
1
1
1
1
1
1
1
1
1
1
1
1
1
1
1
1
1
1
1
1
1
1
1
1
1
1
1
1
1
1
1
1
1
1
1
1
1
1.00003
1.00175
1.17046
2.51081
2.6277
2.71141
2.79809
2.83189
2.83049
2.80907
2.77779
2.77722
2.79539
2.8278
2.8364
2.83445
2.83583
2.84277
2.85537
2.85906
2.85697
2.85334
2.8528
2.85677
2.86858
2.88988
2.91649
2.93202
2.93823
2.94339
2.95398
2.97493
3.00738
3.05162
3.11368
3.20459
3.30309
3.34304
3.35827
3.40814
3.35373
1
1
1
1
1
1
1
1
1
1
1
1
1
1
1
1
1
1
1
1
1
1
1
1
1
1
1
1
1
1
1
1
1
1
1
1
1
1
1
1
1
1
1
1
1
1
1
1
1
1
1
1
1
1
1
1.00004
1.00305
1.35571
2.57766
2.72539
2.84313
2.9266
2.93262
2.9047
2.85436
2.84417
2.85543
2.87983
2.88572
2.88052
2.87587
2.87917
2.88742
2.89206
2.89066
2.88712
2.88375
2.88132
2.88105
2.88398
2.89369
2.91153
2.92513
2.93175
2.93749
2.94855
2.96922
3.00015
3.04189
3.09964
3.18372
3.28422
3.33784
3.35392
3.39601
3.37118
1
1
1
1
1
1
1
1
1
1
1
1
1
1
1
1
1
1
1
1
1
1
1
1
1
1
1
1
1
1
1
1
1
1
1
1
1
1
1
1
1
1
1
1
1
1
1
1
1
1
1
1
1
1
1
1.00002
1.00134
1.08257
2.37058
2.66786
2.78335
2.80168
2.79447
2.76442
2.72217
2.72161
2.74611
2.79613
2.81734
2.81566
2.80998
2.81161
2.82041
2.83467
2.84271
2.84376
2.84533
2.85145
2.86258
2.87472
2.88715
2.90056
2.9129
2.92185
2.92859
2.93731
2.95268
2.97731
3.01246
3.06072
3.12843
3.22147
3.30705
3.34298
3.38048
3.38523
1
1
1
1
1
1
1
1
1
1
1
1
1
1
1
1
1
1
1
1
1
1
1
1
1
1
1
1
1
1
1
1
1
1
1
1
1
1
1
1
1
1
1
1
1
1
1
1
1
1
1
1
1
1
1
1.00004
1.00339
1.39913
2.60135
2.76758
2.87853
2.94511
2.95043
2.92191
2.86522
2.84434
2.84893
2.87035
2.87299
2.86272
2.846
2.84644
2.8548
2.8619
2.86015
2.85517
2.85302
2.85523
2.86234
2.87076
2.88071
2.89328
2.90627
2.91562
2.92178
2.92842
2.9391
2.95667
2.98367
3.02376
3.08125
3.16359
3.26436
3.32723
3.36708
3.38358
1
1
1
1
1
1
1
1
1
1
1
1
1
1
1
1
1
1
1
1
1
1
1
1
1
1
1
1
1
1
1
1
1
1
1
1
1
1
1
1
1
1
1
1
1
1
1
1
1
1
1
1
1
1
1
1.00002
1.00138
1.07323
2.35452
2.69855
2.88252
2.92458
2.90541
2.83866
2.79721
2.81289
2.86338
2.88597
2.88108
2.86858
2.86859
2.87585
2.8822
2.88135
2.87953
2.87861
2.87965
2.88022
2.88059
2.88337
2.89097
2.90359
2.91484
2.92147
2.92585
2.93137
2.94099
2.95712
2.98125
3.01495
3.06208
3.1324
3.23301
3.31417
3.36323
3.38289
1
1
1
1
1
1
1
1
1
1
1
1
1
1
1
1
1
1
1
1
1
1
1
1
1
1
1
1
1
1
1
1
1
1
1
1
1
1
1
1
1
1
1
1
1
1
1
1
1
1
1
1
1
1
1
1.00001
1.0006
1.03575
2.34902
2.71387
2.83954
2.84674
2.83587
2.79889
2.76382
2.76939
2.81057
2.85557
2.85602
2.84743
2.84788
2.85888
2.87291
2.8786
2.87814
2.881
2.88846
2.89541
2.89895
2.90248
2.90902
2.91761
2.92483
2.92988
2.9345
2.94055
2.94942
2.96317
2.98478
3.01691
3.06096
3.12289
3.21761
3.3052
3.36114
3.38194
1
1
1
1
1
1
1
1
1
1
1
1
1
1
1
1
1
1
1
1
1
1
1
1
1
1
1
1
1
1
1
1
1
1
1
1
1
1
1
1
1
1
1
1
1
1
1
1
1
1
1
1
1
1
1
1.00001
1.00047
1.03035
2.29817
2.74306
2.82459
2.82313
2.81787
2.79396
2.76448
2.76475
2.78707
2.82588
2.83239
2.82838
2.82371
2.82908
2.84387
2.85841
2.86529
2.87122
2.88065
2.89124
2.89881
2.90623
2.91375
2.92018
2.92599
2.93376
2.94428
2.95416
2.96294
2.9742
2.99288
3.02252
3.06384
3.12425
3.21812
3.3045
3.36089
3.38058
1
1
1
1
1
1
1
1
1
1
1
1
1
1
1
1
1
1
1
1
1
1
1
1
1
1
1
1
1
1
1
1
1
1
1
1
1
1
1
1
1
1
1
1
1
1
1
1
1
1
1
1
1
1
1
1.00001
1.00045
1.02886
2.27379
2.77647
2.83795
2.83579
2.82601
2.79627
2.76788
2.76928
2.79049
2.821
2.82542
2.82046
2.81395
2.81725
2.82941
2.84437
2.85214
2.85713
2.86533
2.8783
2.8914
2.90168
2.90936
2.9153
2.92149
2.93094
2.9453
2.9629
2.97629
2.98785
3.00468
3.0315
3.06975
3.1285
3.22179
3.30562
3.36118
3.37872
1
1
1
1
1
1
1
1
1
1
1
1
1
1
1
1
1
1
1
1
1
1
1
1
1
1
1
1
1
1
1
1
1
1
1
1
1
1
1
1
1
1
1
1
1
1
1
1
1
1
1
1
1
1
1
1.00001
1.00042
1.02687
2.22173
2.79741
2.85582
2.85028
2.8281
2.78678
2.76554
2.77344
2.80424
2.83075
2.83197
2.82439
2.81657
2.81959
2.83126
2.84422
2.84938
2.85222
2.85709
2.8661
2.87843
2.89036
2.89914
2.90576
2.91317
2.92515
2.9433
2.96335
2.9814
2.99768
3.01606
3.04107
3.07682
3.13463
3.22812
3.30814
3.36247
3.37702
1
1
1
1
1
1
1
1
1
1
1
1
1
1
1
1
1
1
1
1
1
1
1
1
1
1
1
1
1
1
1
1
1
1
1
1
1
1
1
1
1
1
1
1
1
1
1
1
1
1
1
1
1
1
1
1.00001
1.00039
1.02496
2.17767
2.81072
2.85974
2.85085
2.8161
2.76802
2.75674
2.77775
2.82789
2.84613
2.84162
2.82515
2.82068
2.82603
2.84021
2.8507
2.85276
2.85415
2.85822
2.86593
2.87355
2.88109
2.8882
2.89514
2.90369
2.91744
2.93821
2.96114
2.9808
2.9986
3.01869
3.04396
3.07962
3.1403
3.23608
3.31172
3.36409
3.37433
1
1
1
1
1
1
1
1
1
1
1
1
1
1
1
1
1
1
1
1
1
1
1
1
1
1
1
1
1
1
1
1
1
1
1
1
1
1
1
1
1
1
1
1
1
1
1
1
1
1
1
1
1
1
1
1.00001
1.00035
1.02287
2.12482
2.81905
2.8523
2.84006
2.79508
2.74799
2.74745
2.77735
2.83425
2.84668
2.83933
2.82039
2.81814
2.82553
2.84355
2.85446
2.85621
2.85779
2.86205
2.86841
2.87417
2.87875
2.88339
2.88905
2.89677
2.90965
2.93015
2.95477
2.97707
2.99696
3.01788
3.04329
3.07896
3.14022
3.23767
3.31237
3.36584
3.37015
1
1
1
1
1
1
1
1
1
1
1
1
1
1
1
1
1
1
1
1
1
1
1
1
1
1
1
1
1
1
1
1
1
1
1
1
1
1
1
1
1
1
1
1
1
1
1
1
1
1
1
1
1
1
1
1
1.00032
1.0207
2.08427
2.84409
2.85199
2.82774
2.7714
2.73867
2.74967
2.79132
2.84548
2.84814
2.83581
2.81402
2.81379
2.82398
2.84381
2.85374
2.85527
2.85711
2.86249
2.86991
2.87476
2.87788
2.88101
2.88532
2.89149
2.90215
2.92011
2.94425
2.96871
2.99138
3.01425
3.04044
3.07644
3.1386
3.2369
3.31199
3.36552
3.36696
1
1
1
1
1
1
1
1
1
1
1
1
1
1
1
1
1
1
1
1
1
1
1
1
1
1
1
1
1
1
1
1
1
1
1
1
1
1
1
1
1
1
1
1
1
1
1
1
1
1
1
1
1
1
1
1
1.00028
1.01804
2.01468
2.85013
2.84874
2.80288
2.73915
2.72675
2.75167
2.81044
2.85485
2.8504
2.82934
2.80634
2.80809
2.82154
2.84325
2.85176
2.85269
2.85463
2.86106
2.86953
2.87487
2.87801
2.88093
2.88419
2.88866
2.89653
2.91088
2.9322
2.95659
2.98113
3.00633
3.03422
3.07115
3.13402
3.23354
3.31002
3.36535
3.36232
1
1
1
1
1
1
1
1
1
1
1
1
1
1
1
1
1
1
1
1
1
1
1
1
1
1
1
1
1
1
1
1
1
1
1
1
1
1
1
1
1
1
1
1
1
1
1
1
1
1
1
1
1
1
1
1
1.00023
1.01517
1.94166
2.85608
2.84006
2.76206
2.71197
2.71978
2.76664
2.83538
2.85923
2.84903
2.81981
2.79789
2.80216
2.81934
2.84253
2.84852
2.84842
2.85004
2.85751
2.868
2.87462
2.8783
2.88117
2.88401
2.88765
2.89409
2.90564
2.92333
2.94479
2.96854
2.99509
3.0252
3.06389
3.12771
3.22817
3.30553
3.36325
3.35959
1
1
1
1
1
1
1
1
1
1
1
1
1
1
1
1
1
1
1
1
1
1
1
1
1
1
1
1
1
1
1
1
1
1
1
1
1
1
1
1
1
1
1
1
1
1
1
1
1
1
1
1
1
1
1
1
1.00017
1.01143
1.8143
2.85139
2.80318
2.71146
2.69613
2.72725
2.79653
2.85829
2.85965
2.842
2.80749
2.79032
2.79756
2.81958
2.84266
2.84484
2.84393
2.84515
2.85314
2.86539
2.87363
2.87811
2.88112
2.88369
2.887
2.8934
2.90466
2.9199
2.93729
2.95762
2.9833
3.015
3.0557
3.12061
3.22198
3.30101
3.36102
3.35628
1
1
1
1
1
1
1
1
1
1
1
1
1
1
1
1
1
1
1
1
1
1
1
1
1
1
1
1
1
1
1
1
1
1
1
1
1
1
1
1
1
1
1
1
1
1
1
1
1
1
1
1
1
1
1
1
1.0001
1.00689
1.59304
2.80988
2.73995
2.68199
2.69709
2.75576
2.83544
2.86655
2.85794
2.8277
2.7937
2.78441
2.79551
2.82281
2.84252
2.84193
2.83978
2.84103
2.84949
2.86234
2.87132
2.87652
2.87986
2.88244
2.88586
2.89271
2.90439
2.91884
2.93339
2.95016
2.9736
3.00548
3.04764
3.11355
3.21549
3.29586
3.35752
3.3533
1
1
1
1
1
1
1
1
1
1
1
1
1
1
1
1
1
1
1
1
1
1
1
1
1
1
1
1
1
1
1
1
1
1
1
1
1
1
1
1
1
1
1
1
1
1
1
1
1
1
1
1
1
1
1
1
1.00004
1.0029
1.30802
2.70235
2.67638
2.67963
2.72114
2.80002
2.86244
2.86493
2.84873
2.80775
2.77938
2.77941
2.79653
2.82838
2.84148
2.83852
2.83532
2.83708
2.84638
2.85891
2.8672
2.87245
2.8763
2.87944
2.88356
2.89137
2.90379
2.91795
2.93084
2.94511
2.96624
2.99727
3.03996
3.10639
3.2085
3.29018
3.35314
3.34984
1
1
1
1
1
1
1
1
1
1
1
1
1
1
1
1
1
1
1
1
1
1
1
1
1
1
1
1
1
1
1
1
1
1
1
1
1
1
1
1
1
1
1
1
1
1
1
1
1
1
1
1
1
1
1
1
1.00001
1.00076
1.06606
2.51841
2.65108
2.69983
2.76218
2.83967
2.86673
2.86046
2.82956
2.78476
2.76598
2.77375
2.80099
2.83322
2.83868
2.83306
2.82963
2.83236
2.84303
2.85477
2.86132
2.86589
2.8703
2.87456
2.87993
2.88904
2.90249
2.91661
2.92854
2.9413
2.96068
2.99045
3.03283
3.09913
3.20105
3.28393
3.34801
3.34561
1
1
1
1
1
1
1
1
1
1
1
1
1
1
1
1
1
1
1
1
1
1
1
1
1
1
1
1
1
1
1
1
1
1
1
1
1
1
1
1
1
1
1
1
1
1
1
1
1
1
1
1
1
1
1
1
1.00001
1.00045
1.02988
2.34039
2.65144
2.73191
2.80609
2.86166
2.86336
2.84661
2.80156
2.76209
2.75475
2.77124
2.80938
2.83559
2.83471
2.82508
2.82237
2.8265
2.83907
2.84987
2.85418
2.85747
2.86207
2.86775
2.87478
2.8854
2.89992
2.9142
2.92563
2.93753
2.95568
2.98412
3.02563
3.09108
3.19238
3.27679
3.3425
3.34162
1
1
1
1
1
1
1
1
1
1
1
1
1
1
1
1
1
1
1
1
1
1
1
1
1
1
1
1
1
1
1
1
1
1
1
1
1
1
1
1
1
1
1
1
1
1
1
1
1
1
1
1
1
1
1
1
1.00001
1.00036
1.02372
2.17363
2.65069
2.7729
2.84364
2.86122
2.85347
2.82061
2.7674
2.74299
2.74793
2.77691
2.82168
2.83514
2.82912
2.81504
2.81374
2.81971
2.83442
2.84432
2.84642
2.84828
2.85264
2.85959
2.86832
2.88023
2.89561
2.91025
2.92173
2.93331
2.95058
2.97764
3.01789
3.08189
3.18207
3.26834
3.33595
3.33695
1
1
1
1
1
1
1
1
1
1
1
1
1
1
1
1
1
1
1
1
1
1
1
1
1
1
1
1
1
1
1
1
1
1
1
1
1
1
1
1
1
1
1
1
1
1
1
1
1
1
1
1
1
1
1
1
1
1.0003
1.01933
2.0372
2.67535
2.8225
2.85051
2.84981
2.83018
2.77991
2.73771
2.73145
2.75079
2.79435
2.83321
2.83336
2.82055
2.80418
2.8046
2.81302
2.82999
2.83881
2.8389
2.83947
2.84331
2.85106
2.86099
2.87348
2.88917
2.90426
2.91634
2.92817
2.94489
2.97051
3.00888
3.07039
3.169
3.25957
3.32818
3.33014
1
1
1
1
1
1
1
1
1
1
1
1
1
1
1
1
1
1
1
1
1
1
1
1
1
1
1
1
1
1
1
1
1
1
1
1
1
1
1
1
1
1
1
1
1
1
1
1
1
1
1
1
1
1
1
1
1
1.00025
1.01584
1.92897
2.74174
2.83797
2.83751
2.82472
2.78346
2.73215
2.71712
2.73075
2.77036
2.82029
2.83688
2.82969
2.80871
2.79402
2.79652
2.80848
2.82767
2.83338
2.83221
2.8318
2.83494
2.8429
2.85331
2.86545
2.88065
2.89598
2.90907
2.92171
2.93828
2.96262
2.99873
3.057
3.15287
3.24766
3.31723
3.32568
1
1
1
1
1
1
1
1
1
1
1
1
1
1
1
1
1
1
1
1
1
1
1
1
1
1
1
1
1
1
1
1
1
1
1
1
1
1
1
1
1
1
1
1
1
1
1
1
1
1
1
1
1
1
1
1
1
1.00018
1.01174
1.78417
2.77537
2.8188
2.80752
2.77314
2.72451
2.7065
2.71542
2.75057
2.80701
2.8384
2.83538
2.81905
2.79404
2.78579
2.79093
2.80775
2.82694
2.82882
2.82631
2.8248
2.82753
2.83537
2.84565
2.85671
2.87061
2.88566
2.89978
2.91361
2.93046
2.95372
2.98747
3.04233
3.13536
3.23409
3.30473
3.32013
1
1
1
1
1
1
1
1
1
1
1
1
1
1
1
1
1
1
1
1
1
1
1
1
1
1
1
1
1
1
1
1
1
1
1
1
1
1
1
1
1
1
1
1
1
1
1
1
1
1
1
1
1
1
1
1
1
1.00011
1.00707
1.56151
2.73606
2.786
2.76113
2.72423
2.71278
2.71524
2.74001
2.79322
2.83635
2.83995
2.82854
2.80124
2.77853
2.77803
2.78813
2.80936
2.82584
2.82514
2.8205
2.81812
2.82069
2.82841
2.83814
2.84781
2.85997
2.87412
2.88882
2.90389
2.92139
2.94393
2.97532
3.02658
3.11651
3.21817
3.28987
3.31301
1
1
1
1
1
1
1
1
1
1
1
1
1
1
1
1
1
1
1
1
1
1
1
1
1
1
1
1
1
1
1
1
1
1
1
1
1
1
1
1
1
1
1
1
1
1
1
1
1
1
1
1
1
1
1
1
1
1.00004
1.00282
1.26837
2.54712
2.73757
2.72491
2.72332
2.73197
2.754
2.79347
2.83168
2.84113
2.83517
2.8114
2.77852
2.76448
2.76999
2.78884
2.81329
2.82379
2.82094
2.81413
2.81143
2.81409
2.82181
2.83079
2.83913
2.84954
2.86245
2.87693
2.89268
2.91081
2.93295
2.96242
3.01013
3.09622
3.20005
3.27743
3.30101
1
1
1
1
1
1
1
1
1
1
1
1
1
1
1
1
1
1
1
1
1
1
1
1
1
1
1
1
1
1
1
1
1
1
1
1
1
1
1
1
1
1
1
1
1
1
1
1
1
1
1
1
1
1
1
1
1
1.00001
1.00082
1.03931
2.33789
2.70994
2.71394
2.7354
2.77104
2.80303
2.82635
2.83608
2.8355
2.81936
2.78484
2.75816
2.75601
2.76907
2.79434
2.81686
2.8202
2.81492
2.80668
2.80465
2.80762
2.81549
2.8237
2.83078
2.83961
2.85132
2.865
2.88045
2.89877
2.92063
2.94855
2.99265
3.07423
3.18017
3.26576
3.28528
1
1
1
1
1
1
1
1
1
1
1
1
1
1
1
1
1
1
1
1
1
1
1
1
1
1
1
1
1
1
1
1
1
1
1
1
1
1
1
1
1
1
1
1
1
1
1
1
1
1
1
1
1
1
1
1
1
1.00001
1.00036
1.02355
2.15636
2.72771
2.726
2.73787
2.77073
2.80362
2.82413
2.82864
2.82067
2.79443
2.76277
2.75082
2.7568
2.77602
2.80393
2.81683
2.81502
2.8061
2.79797
2.79752
2.8013
2.80953
2.81664
2.82252
2.83022
2.84076
2.85325
2.86758
2.88519
2.90653
2.93272
2.97278
3.04909
3.15514
3.24275
3.27747
1
1
1
1
1
1
1
1
1
1
1
1
1
1
1
1
1
1
1
1
1
1
1
1
1
1
1
1
1
1
1
1
1
1
1
1
1
1
1
1
1
1
1
1
1
1
1
1
1
1
1
1
1
1
1
1
1
1
1.00025
1.01647
1.98299
2.75588
2.73485
2.71996
2.73796
2.77857
2.80796
2.80818
2.79636
2.77056
2.75522
2.75679
2.76972
2.79348
2.81169
2.81337
2.80642
2.79422
2.78869
2.78988
2.79537
2.80393
2.80943
2.81407
2.82082
2.83044
2.8415
2.85405
2.87019
2.89065
2.91526
2.95147
3.02175
3.1285
3.22452
3.25114
1
1
1
1
1
1
1
1
1
1
1
1
1
1
1
1
1
1
1
1
1
1
1
1
1
1
1
1
1
1
1
1
1
1
1
1
1
1
1
1
1
1
1
1
1
1
1
1
1
1
1
1
1
1
1
1
1
1
1.00015
1.00974
1.72907
2.74826
2.716
2.67781
2.68299
2.71388
2.75532
2.77198
2.76687
2.76216
2.76508
2.77548
2.79378
2.80818
2.81119
2.80689
2.79302
2.78066
2.77931
2.78248
2.79031
2.7982
2.80182
2.80508
2.81086
2.81973
2.82941
2.83979
2.85365
2.87252
2.89548
2.92779
2.99053
3.09345
3.19629
3.22558
1
1
1
1
1
1
1
1
1
1
1
1
1
1
1
1
1
1
1
1
1
1
1
1
1
1
1
1
1
1
1
1
1
1
1
1
1
1
1
1
1
1
1
1
1
1
1
1
1
1
1
1
1
1
1
1
1
1
1.00005
1.00362
1.34103
2.61627
2.69168
2.68475
2.68732
2.69925
2.71705
2.74064
2.75069
2.76023
2.77558
2.79359
2.80509
2.80835
2.8069
2.79614
2.77761
2.76901
2.77031
2.77631
2.7862
2.7918
2.79345
2.79525
2.79996
2.80816
2.81657
2.82463
2.83549
2.85174
2.87256
2.90115
2.95653
3.05337
3.15144
3.18989
1
1
1
1
1
1
1
1
1
1
1
1
1
1
1
1
1
1
1
1
1
1
1
1
1
1
1
1
1
1
1
1
1
1
1
1
1
1
1
1
1
1
1
1
1
1
1
1
1
1
1
1
1
1
1
1
1
1
1.00001
1.00088
1.04162
2.36773
2.70237
2.70865
2.70465
2.70546
2.71336
2.73154
2.74458
2.75819
2.77464
2.79188
2.80265
2.80385
2.79877
2.78303
2.76507
2.76158
2.76484
2.77322
2.78234
2.78423
2.78398
2.78448
2.78804
2.79547
2.80268
2.80842
2.81591
2.82862
2.84639
2.86989
2.91406
2.99882
3.08776
3.14254
1
1
1
1
1
1
1
1
1
1
1
1
1
1
1
1
1
1
1
1
1
1
1
1
1
1
1
1
1
1
1
1
1
1
1
1
1
1
1
1
1
1
1
1
1
1
1
1
1
1
1
1
1
1
1
1
1
1
1.00001
1.00034
1.02335
2.13735
2.67729
2.7569
2.75391
2.74443
2.73622
2.73866
2.74292
2.74953
2.7621
2.77937
2.79249
2.79259
2.78592
2.77078
2.75976
2.76024
2.76475
2.77253
2.77686
2.77582
2.77317
2.77258
2.77509
2.78158
2.78756
2.79108
2.79505
2.80327
2.81662
2.83375
2.86544
2.93281
3.0065
3.01213
1
1
1
1
1
1
1
1
1
1
1
1
1
1
1
1
1
1
1
1
1
1
1
1
1
1
1
1
1
1
1
1
1
1
1
1
1
1
1
1
1
1
1
1
1
1
1
1
1
1
1
1
1
1
1
1
1
1
1
1.00021
1.01404
1.90754
2.64065
2.75441
2.76092
2.76411
2.75834
2.74869
2.73938
2.73547
2.73889
2.74953
2.76296
2.77061
2.76697
2.75978
2.75885
2.7622
2.76711
2.77092
2.77019
2.76623
2.76089
2.75924
2.76095
2.76644
2.77127
2.77231
2.77301
2.77612
2.78372
2.79331
2.80895
2.84354
2.84309
2.69271
1
1
1
1
1
1
1
1
1
1
1
1
1
1
1
1
1
1
1
1
1
1
1
1
1
1
1
1
1
1
1
1
1
1
1
1
1
1
1
1
1
1
1
1
1
1
1
1
1
1
1
1
1
1
1
1
1
1
1
1.00008
1.00566
1.46649
2.53997
2.68039
2.72247
2.74925
2.75213
2.74743
2.73592
2.72344
2.71746
2.71723
2.72296
2.73602
2.74635
2.7527
2.75899
2.76611
2.76769
2.76697
2.76287
2.7552
2.74732
2.74444
2.7454
2.74995
2.75313
2.75219
2.74954
2.74783
2.74877
2.74859
2.74538
2.74268
2.70208
2.47663
1
1
1
1
1
1
1
1
1
1
1
1
1
1
1
1
1
1
1
1
1
1
1
1
1
1
1
1
1
1
1
1
1
1
1
1
1
1
1
1
1
1
1
1
1
1
1
1
1
1
1
1
1
1
1
1
1
1
1
1.00002
1.00142
1.05405
2.38164
2.65157
2.68068
2.70554
2.72602
2.73126
2.72689
2.72243
2.71931
2.71844
2.71679
2.72067
2.73226
2.74511
2.75672
2.76529
2.76521
2.76212
2.75484
2.74381
2.73352
2.72889
2.72907
2.73219
2.733
2.7308
2.7252
2.71875
2.71267
2.70349
2.68596
2.66059
2.60561
2.30367
1
1
1
1
1
1
1
1
1
1
1
1
1
1
1
1
1
1
1
1
1
1
1
1
1
1
1
1
1
1
1
1
1
1
1
1
1
1
1
1
1
1
1
1
1
1
1
1
1
1
1
1
1
1
1
1
1
1
1
1.00001
1.00036
1.02477
2.15212
2.67936
2.68436
2.68299
2.6952
2.70982
2.71615
2.7235
2.72358
2.72237
2.71724
2.71775
2.72444
2.73561
2.74857
2.75922
2.75897
2.75529
2.74657
2.73391
2.72214
2.71473
2.7127
2.71329
2.7122
2.70815
2.70016
2.68967
2.67787
2.66174
2.63685
2.59626
2.54722
2.40367
1
1
1
1
1
1
1
1
1
1
1
1
1
1
1
1
1
1
1
1
1
1
1
1
1
1
1
1
1
1
1
1
1
1
1
1
1
1
1
1
1
1
1
1
1
1
1
1
1
1
1
1
1
1
1
1
1
1
1
1
1.0002
1.01413
1.8763
2.66089
2.70037
2.68813
2.69322
2.70044
2.70788
2.71947
2.72526
2.72528
2.71978
2.71623
2.71857
2.72457
2.73374
2.74393
2.74696
2.74409
2.73648
2.72484
2.71328
2.70381
2.69822
2.69485
2.69106
2.68471
2.67482
2.66146
2.64549
2.62454
2.59613
2.54807
2.4982
2.39078
1
1
1
1
1
1
1
1
1
1
1
1
1
1
1
1
1
1
1
1
1
1
1
1
1
1
1
1
1
1
1
1
1
1
1
1
1
1
1
1
1
1
1
1
1
1
1
1
1
1
1
1
1
1
1
1
1
1
1
1
1.00007
1.00544
1.40923
2.50915
2.68479
2.68021
2.68698
2.69509
2.69873
2.70683
2.71694
2.72172
2.71792
2.71419
2.71378
2.71308
2.71525
2.72006
2.72472
2.72532
2.72163
2.71424
2.70543
2.69619
2.68741
2.67926
2.67138
2.662
2.65005
2.63464
2.61598
2.59214
2.56251
2.51353
2.45361
2.36964
1
1
1
1
1
1
1
1
1
1
1
1
1
1
1
1
1
1
1
1
1
1
1
1
1
1
1
1
1
1
1
1
1
1
1
1
1
1
1
1
1
1
1
1
1
1
1
1
1
1
1
1
1
1
1
1
1
1
1
1
1.00001
1.00136
1.04741
2.28309
2.65732
2.6638
2.67482
2.68427
2.68364
2.68873
2.6989
2.70952
2.7102
2.70859
2.70723
2.70333
2.69712
2.69598
2.69746
2.70036
2.70316
2.70156
2.6975
2.69026
2.68021
2.66806
2.65511
2.64151
2.6268
2.60951
2.58934
2.56362
2.53239
2.48458
2.42341
2.3511
1
1
1
1
1
1
1
1
1
1
1
1
1
1
1
1
1
1
1
1
1
1
1
1
1
1
1
1
1
1
1
1
1
1
1
1
1
1
1
1
1
1
1
1
1
1
1
1
1
1
1
1
1
1
1
1
1
1
1
1
1.00001
1.00031
1.02092
2.04262
2.65152
2.6545
2.66729
2.6745
2.67404
2.67853
2.68603
2.69337
2.69693
2.69775
2.69759
2.69456
2.68816
2.68033
2.67917
2.68038
2.68504
2.68964
2.68857
2.68389
2.67444
2.66063
2.64379
2.62544
2.60694
2.58712
2.56575
2.5388
2.50603
2.46249
2.39897
2.33241
1
1
1
1
1
1
1
1
1
1
1
1
1
1
1
1
1
1
1
1
1
1
1
1
1
1
1
1
1
1
1
1
1
1
1
1
1
1
1
1
1
1
1
1
1
1
1
1
1
1
1
1
1
1
1
1
1
1
1
1
1
1.00014
1.01005
1.68295
2.59745
2.66922
2.6648
2.66729
2.67002
2.67424
2.67932
2.68172
2.68261
2.68312
2.68624
2.6854
2.68202
2.67539
2.66954
2.66912
2.67135
2.67741
2.67831
2.67563
2.66789
2.6545
2.6363
2.61477
2.59234
2.569
2.54565
2.51726
2.48404
2.44243
2.38747
2.33322
1
1
1
1
1
1
1
1
1
1
1
1
1
1
1
1
1
1
1
1
1
1
1
1
1
1
1
1
1
1
1
1
1
1
1
1
1
1
1
1
1
1
1
1
1
1
1
1
1
1
1
1
1
1
1
1
1
1
1
1
1
1.00003
1.00282
1.15593
2.38332
2.65452
2.65239
2.65997
2.66361
2.66896
2.67273
2.67223
2.67005
2.66853
2.6722
2.67571
2.67488
2.67153
2.66571
2.66144
2.66165
2.66499
2.66629
2.66441
2.65836
2.64661
2.6292
2.6071
2.58255
2.55605
2.52988
2.49959
2.46645
2.42708
2.37562
2.33254
1
1
1
1
1
1
1
1
1
1
1
1
1
1
1
1
1
1
1
1
1
1
1
1
1
1
1
1
1
1
1
1
1
1
1
1
1
1
1
1
1
1
1
1
1
1
1
1
1
1
1
1
1
1
1
1
1
1
1
1
1
1.00001
1.0005
1.02725
2.13961
2.63495
2.63868
2.64926
2.65294
2.65886
2.66344
2.66244
2.65954
2.6566
2.65845
2.66437
2.66643
2.66563
2.66171
2.6566
2.65332
2.65333
2.65273
2.65027
2.64491
2.63506
2.61995
2.59961
2.57559
2.54809
2.51961
2.48733
2.45399
2.41568
2.36638
2.32825
1
1
1
1
1
1
1
1
1
1
1
1
1
1
1
1
1
1
1
1
1
1
1
1
1
1
1
1
1
1
1
1
1
1
1
1
1
1
1
1
1
1
1
1
1
1
1
1
1
1
1
1
1
1
1
1
1
1
1
1
1
1
1.00018
1.01304
1.78952
2.60169
2.63116
2.64156
2.64392
2.64704
2.65383
2.65286
2.65055
2.64685
2.64681
2.65179
2.65581
2.65702
2.65513
2.65107
2.64647
2.64268
2.63862
2.63345
2.62691
2.61792
2.60549
2.58854
2.56725
2.54114
2.51237
2.47877
2.44592
2.407
2.36378
2.32791
1
1
1
1
1
1
1
1
1
1
1
1
1
1
1
1
1
1
1
1
1
1
1
1
1
1
1
1
1
1
1
1
1
1
1
1
1
1
1
1
1
1
1
1
1
1
1
1
1
1
1
1
1
1
1
1
1
1
1
1
1
1
1.00005
1.00391
1.23881
2.42835
2.63051
2.63021
2.632
2.63298
2.64087
2.64151
2.64056
2.63669
2.6355
2.63919
2.64305
2.64542
2.64461
2.64212
2.63785
2.63233
2.62549
2.61706
2.6077
2.59787
2.58706
2.57364
2.55654
2.53395
2.50744
2.47472
2.44318
2.40321
2.36371
2.32596
1
1
1
1
1
1
1
1
1
1
1
1
1
1
1
1
1
1
1
1
1
1
1
1
1
1
1
1
1
1
1
1
1
1
1
1
1
1
1
1
1
1
1
1
1
1
1
1
1
1
1
1
1
1
1
1
1
1
1
1
1
1
1.00001
1.00074
1.03098
2.17428
2.61747
2.6171
2.61647
2.61906
2.62875
2.62996
2.62992
2.62721
2.62602
2.62857
2.6315
2.63294
2.63231
2.63059
2.6272
2.62188
2.61429
2.60409
2.59171
2.57904
2.5674
2.55576
2.54209
2.52348
2.50077
2.47036
2.44128
2.40131
2.36521
2.32613
1
1
1
1
1
1
1
1
1
1
1
1
1
1
1
1
1
1
1
1
1
1
1
1
1
1
1
1
1
1
1
1
1
1
1
1
1
1
1
1
1
1
1
1
1
1
1
1
1
1
1
1
1
1
1
1
1
1
1
1
1
1
1
1.00018
1.01359
1.79152
2.5909
2.60783
2.608
2.61096
2.61885
2.6203
2.62102
2.6185
2.61785
2.61934
2.62183
2.62173
2.62023
2.61765
2.61416
2.60939
2.60243
2.59263
2.5798
2.5653
2.55144
2.53926
2.52711
2.51156
2.49306
2.46629
2.44047
2.40255
2.36947
2.32682
1
1
1
1
1
1
1
1
1
1
1
1
1
1
1
1
1
1
1
1
1
1
1
1
1
1
1
1
1
1
1
1
1
1
1
1
1
1
1
1
1
1
1
1
1
1
1
1
1
1
1
1
1
1
1
1
1
1
1
1
1
1
1
1.00004
1.00368
1.19612
2.40814
2.60123
2.59867
2.59811
2.60369
2.6083
2.61053
2.6085
2.60859
2.60998
2.61253
2.61187
2.60906
2.60498
2.60058
2.59601
2.59032
2.58236
2.57132
2.55727
2.54206
2.52761
2.51418
2.49897
2.48271
2.45892
2.43645
2.40128
2.37235
2.32898
1
1
1
1
1
1
1
1
1
1
1
1
1
1
1
1
1
1
1
1
1
1
1
1
1
1
1
1
1
1
1
1
1
1
1
1
1
1
1
1
1
1
1
1
1
1
1
1
1
1
1
1
1
1
1
1
1
1
1
1
1
1
1
1.00001
1.00059
1.02776
2.1237
2.58456
2.58289
2.58175
2.59001
2.59764
2.60129
2.60018
2.60036
2.60131
2.60349
2.60284
2.59985
2.5949
2.58928
2.58395
2.57844
2.57147
2.56247
2.55002
2.53518
2.51915
2.50393
2.48737
2.47224
2.45077
2.4311
2.39973
2.37333
2.33109
1
1
1
1
1
1
1
1
1
1
1
1
1
1
1
1
1
1
1
1
1
1
1
1
1
1
1
1
1
1
1
1
1
1
1
1
1
1
1
1
1
1
1
1
1
1
1
1
1
1
1
1
1
1
1
1
1
1
1
1
1
1
1
1
1.00014
1.01086
1.65324
2.55676
2.56573
2.56664
2.5811
2.59023
2.59388
2.59171
2.59131
2.59163
2.59291
2.59241
2.58951
2.58433
2.57795
2.57159
2.56571
2.55948
2.5528
2.543
2.52995
2.51408
2.49786
2.47975
2.4633
2.44108
2.42231
2.3917
2.36979
2.3301
1
1
1
1
1
1
1
1
1
1
1
1
1
1
1
1
1
1
1
1
1
1
1
1
1
1
1
1
1
1
1
1
1
1
1
1
1
1
1
1
1
1
1
1
1
1
1
1
1
1
1
1
1
1
1
1
1
1
1
1
1
1
1
1
1.00002
1.00241
1.082
2.34058
2.54631
2.55369
2.5708
2.58096
2.5851
2.58266
2.5809
2.58085
2.58155
2.58092
2.57854
2.57422
2.56827
2.56173
2.55547
2.5491
2.54262
2.53399
2.52247
2.50728
2.49094
2.47176
2.45445
2.43183
2.41397
2.38577
2.36537
2.32725
1
1
1
1
1
1
1
1
1
1
1
1
1
1
1
1
1
1
1
1
1
1
1
1
1
1
1
1
1
1
1
1
1
1
1
1
1
1
1
1
1
1
1
1
1
1
1
1
1
1
1
1
1
1
1
1
1
1
1
1
1
1
1
1
1.00001
1.0003
1.0204
1.96072
2.51435
2.54542
2.56522
2.57362
2.57756
2.57501
2.57168
2.56985
2.56955
2.5683
2.56614
2.56259
2.55737
2.55089
2.54371
2.53621
2.53011
2.5231
2.51375
2.50038
2.48516
2.46638
2.44877
2.42513
2.40611
2.37621
2.35543
2.32027
1
1
1
1
1
1
1
1
1
1
1
1
1
1
1
1
1
1
1
1
1
1
1
1
1
1
1
1
1
1
1
1
1
1
1
1
1
1
1
1
1
1
1
1
1
1
1
1
1
1
1
1
1
1
1
1
1
1
1
1
1
1
1
1
1
1.00006
1.00555
1.31425
2.41909
2.51611
2.54972
2.56485
2.56645
2.56435
2.55944
2.55654
2.556
2.55489
2.553
2.55007
2.54581
2.54003
2.53325
2.52573
2.51933
2.51234
2.50351
2.49091
2.47642
2.45797
2.44051
2.41749
2.39915
2.37131
2.35213
2.31643
1
1
1
1
1
1
1
1
1
1
1
1
1
1
1
1
1
1
1
1
1
1
1
1
1
1
1
1
1
1
1
1
1
1
1
1
1
1
1
1
1
1
1
1
1
1
1
1
1
1
1
1
1
1
1
1
1
1
1
1
1
1
1
1
1
1.00001
1.00086
1.03297
2.14758
2.48244
2.52359
2.55267
2.55591
2.5537
2.5488
2.54494
2.54438
2.54346
2.54179
2.53874
2.53472
2.52921
2.52229
2.51374
2.50598
2.49882
2.49128
2.4806
2.46808
2.45118
2.4347
2.41247
2.3941
2.36663
2.34726
2.31277
1
1
1
1
1
1
1
1
1
1
1
1
1
1
1
1
1
1
1
1
1
1
1
1
1
1
1
1
1
1
1
1
1
1
1
1
1
1
1
1
1
1
1
1
1
1
1
1
1
1
1
1
1
1
1
1
1
1
1
1
1
1
1
1
1
1
1.00012
1.01063
1.55843
2.41527
2.52323
2.53938
2.54264
2.54077
2.53594
2.53201
2.53046
2.53
2.52898
2.52674
2.52322
2.51775
2.51087
2.50259
2.49467
2.48727
2.48044
2.47055
2.45869
2.44218
2.42597
2.40438
2.38746
2.36264
2.34583
2.31553
1
1
1
1
1
1
1
1
1
1
1
1
1
1
1
1
1
1
1
1
1
1
1
1
1
1
1
1
1
1
1
1
1
1
1
1
1
1
1
1
1
1
1
1
1
1
1
1
1
1
1
1
1
1
1
1
1
1
1
1
1
1
1
1
1
1
1.00002
1.00193
1.0608
2.2402
2.48571
2.52789
2.52814
2.52738
2.52245
2.51687
2.51717
2.51758
2.51795
2.51706
2.51426
2.50879
2.50134
2.49206
2.48239
2.47369
2.46733
2.45867
2.44896
2.43468
2.42006
2.39983
2.38337
2.35914
2.34284
2.31373
1
1
1
1
1
1
1
1
1
1
1
1
1
1
1
1
1
1
1
1
1
1
1
1
1
1
1
1
1
1
1
1
1
1
1
1
1
1
1
1
1
1
1
1
1
1
1
1
1
1
1
1
1
1
1
1
1
1
1
1
1
1
1
1
1
1
1
1.00021
1.01622
1.76117
2.4303
2.51842
2.51274
2.51194
2.50838
2.50345
2.50245
2.50318
2.50527
2.50522
2.50333
2.49817
2.49032
2.48096
2.4716
2.46246
2.45638
2.44852
2.44
2.42681
2.41272
2.39272
2.37668
2.35387
2.34
2.31382
1
1
1
1
1
1
1
1
1
1
1
1
1
1
1
1
1
1
1
1
1
1
1
1
1
1
1
1
1
1
1
1
1
1
1
1
1
1
1
1
1
1
1
1
1
1
1
1
1
1
1
1
1
1
1
1
1
1
1
1
1
1
1
1
1
1
1
1.00003
1.00328
1.12002
2.26697
2.50542
2.50102
2.49794
2.49312
2.48864
2.48672
2.48774
2.49133
2.49393
2.49308
2.48949
2.48234
2.47249
2.46144
2.45012
2.44333
2.43582
2.42895
2.41796
2.40639
2.38844
2.37321
2.35071
2.33614
2.31073
1
1
1
1
1
1
1
1
1
1
1
1
1
1
1
1
1
1
1
1
1
1
1
1
1
1
1
1
1
1
1
1
1
1
1
1
1
1
1
1
1
1
1
1
1
1
1
1
1
1
1
1
1
1
1
1
1
1
1
1
1
1
1
1
1
1
1
1
1.00034
1.01951
1.84641
2.45213
2.49224
2.48758
2.48308
2.47779
2.47441
2.47451
2.47713
2.48105
2.48095
2.47851
2.47195
2.46188
2.45114
2.43978
2.43265
2.4252
2.41934
2.40958
2.39909
2.38228
2.36742
2.3448
2.33188
2.30804
1
1
1
1
1
1
1
1
1
1
1
1
1
1
1
1
1
1
1
1
1
1
1
1
1
1
1
1
1
1
1
1
1
1
1
1
1
1
1
1
1
1
1
1
1
1
1
1
1
1
1
1
1
1
1
1
1
1
1
1
1
1
1
1
1
1
1
1
1.00004
1.00433
1.1663
2.29364
2.48231
2.47718
2.47196
2.46562
2.46125
2.46081
2.46266
2.4671
2.46877
2.46748
2.46281
2.45412
2.44295
2.4299
2.42075
2.41258
2.40727
2.39862
2.39053
2.3762
2.36301
2.34172
2.32783
2.3036
1
1
1
1
1
1
1
1
1
1
1
1
1
1
1
1
1
1
1
1
1
1
1
1
1
1
1
1
1
1
1
1
1
1
1
1
1
1
1
1
1
1
1
1
1
1
1
1
1
1
1
1
1
1
1
1
1
1
1
1
1
1
1
1
1
1
1
1
1.00001
1.00049
1.02197
1.89838
2.42726
2.46537
2.46188
2.45644
2.45293
2.45117
2.45155
2.4541
2.45618
2.45536
2.45188
2.444
2.43356
2.42113
2.41162
2.40243
2.39737
2.38921
2.38205
2.36882
2.35605
2.33506
2.32219
2.29888
1
1
1
1
1
1
1
1
1
1
1
1
1
1
1
1
1
1
1
1
1
1
1
1
1
1
1
1
1
1
1
1
1
1
1
1
1
1
1
1
1
1
1
1
1
1
1
1
1
1
1
1
1
1
1
1
1
1
1
1
1
1
1
1
1
1
1
1
1
1.00005
1.00523
1.19463
2.3098
2.45141
2.45146
2.44803
2.44327
2.43989
2.43931
2.44035
2.44288
2.44286
2.44118
2.43526
2.42608
2.41392
2.40245
2.39152
2.38606
2.37784
2.37182
2.36005
2.34992
2.33104
2.31796
2.2946
1
1
1
1
1
1
1
1
1
1
1
1
1
1
1
1
1
1
1
1
1
1
1
1
1
1
1
1
1
1
1
1
1
1
1
1
1
1
1
1
1
1
1
1
1
1
1
1
1
1
1
1
1
1
1
1
1
1
1
1
1
1
1
1
1
1
1
1
1
1.00001
1.00063
1.02374
1.91895
2.37694
2.4425
2.44016
2.4334
2.43107
2.42897
2.42893
2.43076
2.43097
2.42972
2.42467
2.41663
2.40559
2.39499
2.38337
2.37732
2.36884
2.36333
2.35208
2.34234
2.32408
2.31165
2.28923
1
1
1
1
1
1
1
1
1
1
1
1
1
1
1
1
1
1
1
1
1
1
1
1
1
1
1
1
1
1
1
1
1
1
1
1
1
1
1
1
1
1
1
1
1
1
1
1
1
1
1
1
1
1
1
1
1
1
1
1
1
1
1
1
1
1
1
1
1
1
1.00005
1.00555
1.20401
2.28516
2.43276
2.43045
2.42328
2.4192
2.41592
2.41569
2.41764
2.41864
2.41815
2.4147
2.408
2.39823
2.38733
2.3746
2.36769
2.35884
2.35377
2.34307
2.33525
2.31874
2.30701
2.28551
1
1
1
1
1
1
1
1
1
1
1
1
1
1
1
1
1
1
1
1
1
1
1
1
1
1
1
1
1
1
1
1
1
1
1
1
1
1
1
1
1
1
1
1
1
1
1
1
1
1
1
1
1
1
1
1
1
1
1
1
1
1
1
1
1
1
1
1
1
1
1.00001
1.00061
1.02373
1.87143
2.36038
2.41983
2.41332
2.40802
2.40504
2.40431
2.40591
2.40732
2.40685
2.40351
2.39739
2.38843
2.37897
2.36708
2.35981
2.35063
2.34594
2.33562
2.32842
2.31238
2.30116
2.2807
1
1
1
1
1
1
1
1
1
1
1
1
1
1
1
1
1
1
1
1
1
1
1
1
1
1
1
1
1
1
1
1
1
1
1
1
1
1
1
1
1
1
1
1
1
1
1
1
1
1
1
1
1
1
1
1
1
1
1
1
1
1
1
1
1
1
1
1
1
1
1
1.00005
1.00492
1.17974
2.24179
2.4083
2.40434
2.39648
2.39135
2.38986
2.39186
2.39431
2.39434
2.3926
2.38761
2.37963
2.3705
2.35875
2.35062
2.34144
2.33722
2.32734
2.32155
2.30673
2.29679
2.27804
1
1
1
1
1
1
1
1
1
1
1
1
1
1
1
1
1
1
1
1
1
1
1
1
1
1
1
1
1
1
1
1
1
1
1
1
1
1
1
1
1
1
1
1
1
1
1
1
1
1
1
1
1
1
1
1
1
1
1
1
1
1
1
1
1
1
1
1
1
1
1
1.00001
1.00045
1.0207
1.74173
2.34647
2.39777
2.38818
2.38349
2.37906
2.37948
2.38155
2.38182
2.38068
2.37638
2.36909
2.36101
2.35077
2.34256
2.33343
2.32919
2.32017
2.31502
2.30107
2.29166
2.27433
1
1
1
1
1
1
1
1
1
1
1
1
1
1
1
1
1
1
1
1
1
1
1
1
1
1
1
1
1
1
1
1
1
1
1
1
1
1
1
1
1
1
1
1
1
1
1
1
1
1
1
1
1
1
1
1
1
1
1
1
1
1
1
1
1
1
1
1
1
1
1
1
1.00003
1.00347
1.11989
2.16197
2.3832
2.38025
2.37103
2.364
2.36462
2.36672
2.36807
2.3682
2.36569
2.35972
2.35203
2.34246
2.33325
2.32454
2.31985
2.31194
2.30726
2.29588
2.28642
2.27153
1
1
1
1
1
1
1
1
1
1
1
1
1
1
1
1
1
1
1
1
1
1
1
1
1
1
1
1
1
1
1
1
1
1
1
1
1
1
1
1
1
1
1
1
1
1
1
1
1
1
1
1
1
1
1
1
1
1
1
1
1
1
1
1
1
1
1
1
1
1
1
1
1
1.00024
1.01529
1.53426
2.31265
2.37595
2.36484
2.35752
2.3523
2.35333
2.35442
2.35496
2.35325
2.34864
2.34182
2.33402
2.32466
2.31718
2.31056
2.30487
2.29882
2.29069
2.27976
2.26766
1
1
1
1
1
1
1
1
1
1
1
1
1
1
1
1
1
1
1
1
1
1
1
1
1
1
1
1
1
1
1
1
1
1
1
1
1
1
1
1
1
1
1
1
1
1
1
1
1
1
1
1
1
1
1
1
1
1
1
1
1
1
1
1
1
1
1
1
1
1
1
1
1
1.00002
1.00203
1.06189
2.04101
2.35819
2.35681
2.34266
2.33829
2.33949
2.34042
2.34172
2.34128
2.33811
2.33186
2.32476
2.31489
2.30797
2.29983
2.29684
2.28916
2.28494
2.2724
2.26331
1
1
1
1
1
1
1
1
1
1
1
1
1
1
1
1
1
1
1
1
1
1
1
1
1
1
1
1
1
1
1
1
1
1
1
1
1
1
1
1
1
1
1
1
1
1
1
1
1
1
1
1
1
1
1
1
1
1
1
1
1
1
1
1
1
1
1
1
1
1
1
1
1
1
1.00012
1.00972
1.34559
2.24827
2.35026
2.33815
2.32849
2.32874
2.32933
2.32931
2.329
2.3271
2.32117
2.31528
2.306
2.29949
2.28983
2.2883
2.28016
2.27786
2.26464
2.25781
1
1
1
1
1
1
1
1
1
1
1
1
1
1
1
1
1
1
1
1
1
1
1
1
1
1
1
1
1
1
1
1
1
1
1
1
1
1
1
1
1
1
1
1
1
1
1
1
1
1
1
1
1
1
1
1
1
1
1
1
1
1
1
1
1
1
1
1
1
1
1
1
1
1
1.00001
1.00101
1.03258
1.82703
2.30648
2.33326
2.32217
2.31997
2.32074
2.31966
2.31911
2.31782
2.3111
2.30514
2.29541
2.28937
2.27904
2.27866
2.27098
2.26961
2.25672
2.25166
1
1
1
1
1
1
1
1
1
1
1
1
1
1
1
1
1
1
1
1
1
1
1
1
1
1
1
1
1
1
1
1
1
1
1
1
1
1
1
1
1
1
1
1
1
1
1
1
1
1
1
1
1
1
1
1
1
1
1
1
1
1
1
1
1
1
1
1
1
1
1
1
1
1
1
1.00005
1.00479
1.16217
2.12276
2.30917
2.31716
2.31697
2.31353
2.3119
2.31074
2.30847
2.30141
2.29552
2.28638
2.27991
2.26944
2.26958
2.26186
2.26092
2.2488
2.24494
1
1
1
1
1
1
1
1
1
1
1
1
1
1
1
1
1
1
1
1
1
1
1
1
1
1
1
1
1
1
1
1
1
1
1
1
1
1
1
1
1
1
1
1
1
1
1
1
1
1
1
1
1
1
1
1
1
1
1
1
1
1
1
1
1
1
1
1
1
1
1
1
1
1
1
1
1.00033
1.01628
1.49903
2.23582
2.31803
2.31273
2.30554
2.30506
2.30292
2.30006
2.29294
2.28589