/*--------------------------------*- C++ -*----------------------------------*\
| =========                 |                                                 |
| \\      /  F ield         | OpenFOAM: The Open Source CFD Toolbox           |
|  \\    /   O peration     | Version:  v1812                                 |
|   \\  /    A nd           | Web:      www.OpenFOAM.com                      |
|    \\/     M anipulation  |                                                 |
\*---------------------------------------------------------------------------*/
FoamFile
{
    version     2.0;
    format      ascii;
    class       volVectorField;
    location    "0.7";
    object      U;
}
// * * * * * * * * * * * * * * * * * * * * * * * * * * * * * * * * * * * * * //

dimensions      [0 1 -1 0 0 0 0];


internalField   nonuniform List<vector> 
64512
(
(3 -1.85285e-16 0)
(3 -7.21358e-17 0)
(3 -2.90216e-16 0)
(3 1.22544e-16 0)
(3 6.42087e-16 0)
(3 1.54803e-15 0)
(3 1.08639e-15 0)
(3 9.04301e-16 0)
(3 5.71923e-16 0)
(3 1.02394e-15 0)
(3 1.59773e-15 0)
(3 1.35201e-15 0)
(3 3.57916e-16 0)
(3 2.17212e-17 0)
(3 2.25065e-16 0)
(3 9.52084e-16 0)
(3 1.95876e-15 0)
(3 1.46916e-15 0)
(3 6.19447e-16 0)
(3 1.31529e-15 0)
(3 1.58617e-15 0)
(3 1.31702e-15 0)
(3 2.72201e-16 0)
(3 -2.61305e-16 0)
(3 1.74734e-16 0)
(3 5.3228e-16 0)
(3 1.57467e-15 0)
(3 1.47424e-15 0)
(3 2.36763e-15 0)
(3 3.71249e-15 0)
(3 3.08885e-15 0)
(3 2.37578e-15 0)
(3 8.43446e-16 0)
(3 7.15901e-16 0)
(3 5.92461e-16 0)
(3 4.02775e-16 0)
(3 1.22099e-15 0)
(3 1.50691e-15 0)
(3 1.315e-15 0)
(3 1.79788e-15 0)
(3 1.29013e-15 0)
(3 5.36667e-16 0)
(3 1.28146e-15 0)
(3 1.00775e-15 0)
(3 1.15865e-15 0)
(3 7.21833e-16 0)
(3 2.95686e-16 0)
(3 1.84849e-16 0)
(3 3.30381e-16 0)
(3 6.70357e-16 0)
(3 -1.31248e-16 0)
(3 -7.52661e-14 0)
(3 -3.45639e-12 0)
(3 -4.94235e-10 0)
(3 -2.83071e-08 0)
(2.99998 -2.68459e-06 0)
(2.99872 -0.000256771 0)
(2.82052 -0.029087 0)
(1.05118 -0.11381 0)
(0.823988 -0.00799525 0)
(0.769167 0.0492227 0)
(0.704094 0.04539 0)
(0.662585 0.0202317 0)
(0.649983 0.0022468 0)
(0.645085 0.00323064 0)
(0.633888 0.0134518 0)
(0.608413 0.028364 0)
(0.577146 0.0279001 0)
(0.554194 0.0170498 0)
(0.537341 0.0141803 0)
(0.519528 0.0191043 0)
(0.495645 0.0221536 0)
(0.472108 0.0185543 0)
(0.452088 0.0145058 0)
(0.434509 0.0133546 0)
(0.418499 0.0136036 0)
(0.403194 0.0150596 0)
(0.386673 0.0190842 0)
(0.365973 0.0258893 0)
(0.338768 0.0278637 0)
(0.310714 0.0166506 0)
(0.282767 0.0133907 0)
(0.257054 0.0121179 0)
(0.231558 0.0118032 0)
(0.205383 0.0124545 0)
(0.178163 0.013481 0)
(0.150556 0.0140724 0)
(0.12387 0.0138099 0)
(0.099675 0.0126745 0)
(0.0787905 0.0112034 0)
(0.0600489 0.010066 0)
(0.0432324 0.00941573 0)
(0.0281618 0.00839524 0)
(0.0155476 0.00721945 0)
(0.00628398 0.00492974 0)
(0.000821552 0.00145019 0)
(3 -2.16293e-16 0)
(3 1.38863e-16 0)
(3 4.56954e-16 0)
(3 -1.32622e-16 0)
(3 3.32792e-16 0)
(3 6.61902e-17 0)
(3 1.41599e-16 0)
(3 2.20992e-16 0)
(3 1.1382e-15 0)
(3 8.62569e-16 0)
(3 6.06442e-16 0)
(3 -5.66073e-16 0)
(3 -1.01136e-15 0)
(3 -1.67432e-15 0)
(3 -1.31554e-15 0)
(3 -1.80759e-16 0)
(3 -2.09325e-19 0)
(3 3.23946e-16 0)
(3 1.95696e-15 0)
(3 2.15752e-15 0)
(3 1.17471e-15 0)
(3 8.61584e-16 0)
(3 1.74526e-16 0)
(3 -4.28994e-18 0)
(3 -2.27161e-16 0)
(3 4.52618e-16 0)
(3 8.15703e-16 0)
(3 7.97967e-16 0)
(3 5.6339e-16 0)
(3 2.75789e-16 0)
(3 8.80728e-16 0)
(3 1.01782e-16 0)
(3 -8.99946e-16 0)
(3 -8.32321e-16 0)
(3 -1.91808e-16 0)
(3 3.19253e-16 0)
(3 -1.07038e-16 0)
(3 5.453e-16 0)
(3 6.84188e-16 0)
(3 2.36931e-16 0)
(3 5.51648e-16 0)
(3 7.09744e-16 0)
(3 6.65078e-16 0)
(3 7.97699e-16 0)
(3 2.6764e-16 0)
(3 1.03289e-16 0)
(3 5.41043e-16 0)
(3 -1.01854e-16 0)
(3 1.29428e-17 0)
(3 -3.05457e-16 0)
(3 -2.05378e-15 0)
(3 -2.85608e-14 0)
(3 -2.8013e-12 0)
(3 -1.97891e-10 0)
(3 -1.07171e-08 0)
(2.99997 -2.04547e-07 0)
(2.99772 -1.86957e-05 0)
(2.60611 0.0106449 0)
(0.816849 -0.0767703 0)
(0.606391 0.0093618 0)
(0.586111 0.0671637 0)
(0.547976 0.0643696 0)
(0.511472 0.0366449 0)
(0.483571 0.0138048 0)
(0.45989 0.0096064 0)
(0.443917 0.0168377 0)
(0.434078 0.0305505 0)
(0.422223 0.0286287 0)
(0.414887 0.0189416 0)
(0.405044 0.0162997 0)
(0.396199 0.0213343 0)
(0.384337 0.0243342 0)
(0.372527 0.0207521 0)
(0.360367 0.0168169 0)
(0.348655 0.0153546 0)
(0.338907 0.0151891 0)
(0.331397 0.0162361 0)
(0.3264 0.0202405 0)
(0.323818 0.0265648 0)
(0.320795 0.0319856 0)
(0.311515 0.0394027 0)
(0.292685 0.0395615 0)
(0.268976 0.0383602 0)
(0.243103 0.039255 0)
(0.2168 0.0419985 0)
(0.190949 0.0453713 0)
(0.165617 0.0469135 0)
(0.140899 0.0455286 0)
(0.117529 0.0414215 0)
(0.0962846 0.036133 0)
(0.0766211 0.0314808 0)
(0.0589286 0.0282599 0)
(0.0430933 0.0233486 0)
(0.0289156 0.0180902 0)
(0.0175832 0.0108135 0)
(0.00450323 0.00797344 0)
(3 1.30387e-16 0)
(3 2.08046e-16 0)
(3 8.04084e-17 0)
(3 5.41967e-16 0)
(3 3.3517e-17 0)
(3 3.66848e-17 0)
(3 3.09965e-16 0)
(3 2.28645e-16 0)
(3 3.18548e-16 0)
(3 6.40421e-16 0)
(3 4.89388e-16 0)
(3 9.23699e-16 0)
(3 4.69543e-16 0)
(3 9.85436e-16 0)
(3 1.70016e-15 0)
(3 1.3008e-15 0)
(3 1.09051e-15 0)
(3 1.61157e-15 0)
(3 1.92648e-15 0)
(3 1.73031e-15 0)
(3 1.87823e-15 0)
(3 9.42728e-16 0)
(3 9.71297e-16 0)
(3 5.05879e-16 0)
(3 4.49987e-16 0)
(3 8.89561e-17 0)
(3 -1.47322e-16 0)
(3 9.41343e-17 0)
(3 2.27062e-16 0)
(3 -1.98277e-16 0)
(3 -3.86085e-16 0)
(3 -7.67874e-16 0)
(3 -7.12248e-16 0)
(3 2.13521e-16 0)
(3 1.32506e-15 0)
(3 2.04921e-15 0)
(3 1.76744e-15 0)
(3 1.49573e-15 0)
(3 1.14558e-15 0)
(3 9.59725e-16 0)
(3 1.16622e-15 0)
(3 9.91067e-16 0)
(3 1.1607e-15 0)
(3 1.41922e-15 0)
(3 1.12351e-15 0)
(3 1.62601e-15 0)
(3 9.49897e-16 0)
(3 3.68189e-16 0)
(3 2.53315e-16 0)
(3 -8.20698e-16 0)
(3 -3.01979e-15 0)
(3 -5.09167e-14 0)
(3 -3.73392e-12 0)
(3 -1.35278e-10 0)
(3 -1.9014e-08 0)
(2.99998 -3.47926e-07 0)
(2.99895 -9.91874e-05 0)
(2.92454 -0.0013902 0)
(1.18376 -0.0874976 0)
(0.823657 0.01909 0)
(0.755779 0.0893954 0)
(0.728732 0.0866371 0)
(0.71317 0.0592675 0)
(0.70494 0.0310087 0)
(0.689217 0.0257527 0)
(0.669109 0.0361349 0)
(0.643088 0.0491992 0)
(0.615882 0.0478012 0)
(0.594146 0.0362756 0)
(0.570392 0.0334646 0)
(0.548106 0.0386995 0)
(0.525662 0.0407378 0)
(0.504468 0.0362207 0)
(0.482563 0.0323686 0)
(0.460114 0.0310701 0)
(0.43822 0.0306545 0)
(0.41761 0.0308102 0)
(0.398696 0.0344758 0)
(0.381376 0.0405976 0)
(0.364162 0.0466207 0)
(0.347035 0.0529937 0)
(0.329993 0.0550929 0)
(0.31251 0.0543494 0)
(0.294007 0.0542347 0)
(0.274731 0.0555417 0)
(0.253542 0.0575384 0)
(0.229499 0.0590455 0)
(0.203232 0.058608 0)
(0.17621 0.0551949 0)
(0.149886 0.0496346 0)
(0.124444 0.0440457 0)
(0.100889 0.0401102 0)
(0.0789414 0.0348788 0)
(0.0581114 0.0301448 0)
(0.0364589 0.0271298 0)
(0.0117305 0.0261239 0)
(3 3.06432e-19 0)
(3 -3.46992e-16 0)
(3 4.36053e-16 0)
(3 2.23554e-16 0)
(3 -3.16171e-16 0)
(3 -3.16407e-16 0)
(3 -3.68721e-16 0)
(3 5.41599e-16 0)
(3 4.98065e-16 0)
(3 1.27045e-15 0)
(3 7.81655e-16 0)
(3 9.2173e-16 0)
(3 1.48816e-15 0)
(3 1.756e-15 0)
(3 2.34649e-15 0)
(3 2.54926e-15 0)
(3 2.55404e-15 0)
(3 2.58409e-15 0)
(3 1.87116e-15 0)
(3 9.12501e-16 0)
(3 6.60117e-16 0)
(3 1.03413e-15 0)
(3 1.24503e-15 0)
(3 8.68937e-16 0)
(3 1.17765e-15 0)
(3 4.01494e-16 0)
(3 -3.05262e-16 0)
(3 -4.99282e-16 0)
(3 3.79831e-17 0)
(3 -1.49223e-16 0)
(3 -6.14053e-16 0)
(3 -1.99672e-16 0)
(3 2.0539e-16 0)
(3 3.66663e-17 0)
(3 8.45311e-17 0)
(3 1.1153e-16 0)
(3 1.20582e-16 0)
(3 1.83438e-16 0)
(3 -1.12019e-16 0)
(3 -8.76714e-17 0)
(3 2.04808e-16 0)
(3 6.50296e-16 0)
(3 8.569e-16 0)
(3 1.24246e-15 0)
(3 1.92506e-15 0)
(3 1.40343e-15 0)
(3 1.12623e-15 0)
(3 7.72408e-16 0)
(3 -6.56497e-17 0)
(3 -8.63776e-16 0)
(3 -2.70348e-16 0)
(3 1.13525e-13 0)
(3 -2.52109e-12 0)
(3 1.82207e-10 0)
(3 -1.79715e-08 0)
(2.99997 1.1009e-06 0)
(2.99742 -9.43739e-05 0)
(2.5508 0.0131344 0)
(0.748284 -0.0589604 0)
(0.545031 0.0396438 0)
(0.547356 0.103315 0)
(0.525994 0.102044 0)
(0.501366 0.0717208 0)
(0.483118 0.0389486 0)
(0.470597 0.0364552 0)
(0.470353 0.046512 0)
(0.470779 0.0577871 0)
(0.462939 0.056188 0)
(0.4582 0.0446475 0)
(0.451985 0.0432408 0)
(0.446369 0.0496833 0)
(0.437648 0.0528182 0)
(0.42922 0.049452 0)
(0.418624 0.0485166 0)
(0.406369 0.0498324 0)
(0.393474 0.0516941 0)
(0.38122 0.053527 0)
(0.370755 0.0583503 0)
(0.360655 0.0650406 0)
(0.349167 0.0709707 0)
(0.336145 0.075099 0)
(0.322236 0.075507 0)
(0.306998 0.0749089 0)
(0.290431 0.0751629 0)
(0.273697 0.0781236 0)
(0.257657 0.0836098 0)
(0.240965 0.0884075 0)
(0.221758 0.0901068 0)
(0.199484 0.0874696 0)
(0.174968 0.0813373 0)
(0.148825 0.0743796 0)
(0.121899 0.0689931 0)
(0.0955133 0.0624706 0)
(0.0688554 0.0569626 0)
(0.0415005 0.054029 0)
(0.0118739 0.052546 0)
(3 2.62245e-17 0)
(3 2.95148e-16 0)
(3 -4.54464e-17 0)
(3 -4.96348e-16 0)
(3 -5.6326e-17 0)
(3 -4.30789e-16 0)
(3 -6.81325e-17 0)
(3 1.67451e-16 0)
(3 4.23993e-17 0)
(3 -3.76287e-16 0)
(3 -2.02787e-17 0)
(3 4.01871e-16 0)
(3 9.76495e-16 0)
(3 4.78285e-16 0)
(3 -4.61121e-16 0)
(3 -6.42533e-17 0)
(3 7.70844e-16 0)
(3 1.06307e-15 0)
(3 9.97536e-16 0)
(3 6.39518e-16 0)
(3 2.5932e-16 0)
(3 -2.68561e-16 0)
(3 -4.71854e-16 0)
(3 1.89487e-17 0)
(3 1.66206e-16 0)
(3 2.59704e-16 0)
(3 4.96872e-17 0)
(3 7.26763e-16 0)
(3 1.65785e-17 0)
(3 2.8741e-16 0)
(3 5.93147e-16 0)
(3 7.02981e-16 0)
(3 7.17367e-16 0)
(3 2.96285e-16 0)
(3 5.33479e-16 0)
(3 3.94943e-16 0)
(3 7.05293e-16 0)
(3 1.32405e-15 0)
(3 1.32747e-15 0)
(3 1.27655e-15 0)
(3 1.08409e-15 0)
(3 1.75133e-15 0)
(3 1.23844e-15 0)
(3 1.58029e-15 0)
(3 1.6833e-15 0)
(3 9.95508e-16 0)
(3 6.69903e-16 0)
(3 2.3496e-16 0)
(3 -4.86928e-17 0)
(3 1.66724e-16 0)
(3 2.91649e-15 0)
(3 2.93785e-13 0)
(3 1.4843e-11 0)
(3 1.93575e-09 0)
(3 8.39858e-08 0)
(2.99999 1.08649e-05 0)
(2.99889 0.000525332 0)
(2.92906 0.0813117 0)
(1.14473 0.0426712 0)
(0.735864 0.0490067 0)
(0.634185 0.134459 0)
(0.565478 0.148074 0)
(0.516347 0.111754 0)
(0.495667 0.0644101 0)
(0.476024 0.0477717 0)
(0.461629 0.0556685 0)
(0.447835 0.0710785 0)
(0.432225 0.0715823 0)
(0.420842 0.0594888 0)
(0.406549 0.0561138 0)
(0.394656 0.0606126 0)
(0.38282 0.0599013 0)
(0.375253 0.0531334 0)
(0.363719 0.0504146 0)
(0.348917 0.0515403 0)
(0.33526 0.0523765 0)
(0.323845 0.0517211 0)
(0.315 0.0558753 0)
(0.308382 0.0637543 0)
(0.302243 0.0730707 0)
(0.295321 0.0804757 0)
(0.286908 0.0831269 0)
(0.277019 0.0847369 0)
(0.265378 0.0867308 0)
(0.253198 0.0910094 0)
(0.241625 0.0983483 0)
(0.229395 0.106318 0)
(0.214423 0.111941 0)
(0.196089 0.112849 0)
(0.174929 0.108999 0)
(0.150903 0.103045 0)
(0.124526 0.0973248 0)
(0.0981335 0.0898458 0)
(0.0710882 0.083938 0)
(0.0428394 0.0818836 0)
(0.0108875 0.079689 0)
(3 1.28549e-16 0)
(3 3.84444e-16 0)
(3 -3.1167e-16 0)
(3 -5.32497e-16 0)
(3 -9.46549e-16 0)
(3 -1.27532e-15 0)
(3 -1.03776e-15 0)
(3 -1.01423e-15 0)
(3 -8.14645e-16 0)
(3 -6.90291e-16 0)
(3 2.48791e-16 0)
(3 9.3765e-16 0)
(3 1.23527e-15 0)
(3 1.56363e-15 0)
(3 1.54604e-15 0)
(3 1.17956e-15 0)
(3 1.07024e-15 0)
(3 1.40502e-15 0)
(3 9.70104e-16 0)
(3 6.17256e-16 0)
(3 3.38838e-16 0)
(3 1.49503e-16 0)
(3 1.37908e-16 0)
(3 2.07516e-17 0)
(3 -1.0107e-16 0)
(3 1.83544e-16 0)
(3 -4.8702e-17 0)
(3 -5.79558e-17 0)
(3 -1.60865e-16 0)
(3 5.54389e-16 0)
(3 7.37595e-16 0)
(3 1.18893e-15 0)
(3 9.28432e-16 0)
(3 3.58776e-16 0)
(3 8.35395e-16 0)
(3 1.10603e-15 0)
(3 8.81442e-16 0)
(3 3.15433e-16 0)
(3 4.76329e-16 0)
(3 1.03195e-15 0)
(3 8.92379e-16 0)
(3 5.67453e-16 0)
(3 1.17603e-15 0)
(3 8.27012e-16 0)
(3 -2.71269e-16 0)
(3 -6.54289e-16 0)
(3 -9.27836e-16 0)
(3 -1.05689e-15 0)
(3 -9.36787e-16 0)
(3 -1.17001e-15 0)
(3 -8.9012e-17 0)
(3 7.66277e-14 0)
(3 5.4337e-12 0)
(3 5.7843e-10 0)
(3 1.58651e-08 0)
(2.99999 2.46888e-06 0)
(2.99951 7.10212e-06 0)
(2.97085 0.0105472 0)
(1.16374 -0.0108821 0)
(0.772375 0.103764 0)
(0.718648 0.172108 0)
(0.690122 0.158286 0)
(0.656693 0.114238 0)
(0.638738 0.0605811 0)
(0.610892 0.04757 0)
(0.585984 0.0612819 0)
(0.557254 0.0840937 0)
(0.522328 0.0892885 0)
(0.491073 0.0798062 0)
(0.460608 0.0782838 0)
(0.433449 0.084338 0)
(0.405332 0.0839773 0)
(0.377996 0.0746127 0)
(0.355762 0.0676984 0)
(0.339218 0.0688392 0)
(0.325863 0.0683716 0)
(0.31377 0.0689585 0)
(0.30154 0.0732115 0)
(0.289107 0.0800922 0)
(0.276558 0.0861783 0)
(0.264942 0.0885318 0)
(0.254339 0.0885893 0)
(0.243522 0.089122 0)
(0.232336 0.090947 0)
(0.221315 0.0948448 0)
(0.212304 0.10329 0)
(0.205252 0.115125 0)
(0.195114 0.125857 0)
(0.180589 0.131482 0)
(0.163089 0.131264 0)
(0.142792 0.127896 0)
(0.119816 0.123213 0)
(0.0963699 0.115743 0)
(0.0710575 0.110598 0)
(0.0432357 0.110743 0)
(0.00944908 0.107799 0)
(3 6.04019e-17 0)
(3 -4.65783e-17 0)
(3 1.24977e-16 0)
(3 4.18338e-16 0)
(3 -9.69295e-17 0)
(3 -1.34982e-16 0)
(3 -1.16609e-15 0)
(3 -9.30129e-16 0)
(3 -7.14124e-16 0)
(3 -4.82844e-16 0)
(3 -6.75387e-16 0)
(3 1.83222e-16 0)
(3 8.58558e-16 0)
(3 1.5884e-15 0)
(3 1.5427e-15 0)
(3 1.72767e-15 0)
(3 1.44531e-15 0)
(3 1.49169e-15 0)
(3 -9.92867e-17 0)
(3 -2.53769e-16 0)
(3 -1.04675e-16 0)
(3 3.5856e-16 0)
(3 9.25881e-16 0)
(3 6.51334e-16 0)
(3 4.66279e-16 0)
(3 -3.34167e-16 0)
(3 -1.52619e-17 0)
(3 -1.20782e-16 0)
(3 2.97298e-16 0)
(3 3.41076e-16 0)
(3 5.90945e-16 0)
(3 8.69525e-16 0)
(3 1.559e-15 0)
(3 1.81467e-15 0)
(3 2.12346e-15 0)
(3 2.13254e-15 0)
(3 9.41042e-16 0)
(3 6.39315e-16 0)
(3 3.23301e-16 0)
(3 5.23083e-16 0)
(3 8.51063e-16 0)
(3 7.67323e-16 0)
(3 4.07922e-16 0)
(3 -2.10209e-17 0)
(3 -3.5826e-16 0)
(3 -6.02589e-16 0)
(3 -1.18406e-15 0)
(3 -1.73486e-15 0)
(3 -1.39757e-15 0)
(3 -8.61295e-16 0)
(3 1.05548e-16 0)
(3 3.35313e-14 0)
(3 -1.33446e-13 0)
(3 1.63813e-10 0)
(3 -1.68138e-09 0)
(2.99999 6.38065e-07 0)
(2.99961 -1.13543e-05 0)
(2.97522 0.00244501 0)
(1.25242 -0.045851 0)
(0.767569 0.0955625 0)
(0.720664 0.18901 0)
(0.703957 0.18213 0)
(0.677521 0.143806 0)
(0.66203 0.0886909 0)
(0.635172 0.0768071 0)
(0.617742 0.0910301 0)
(0.603383 0.116401 0)
(0.58184 0.120391 0)
(0.565936 0.105319 0)
(0.546113 0.0972889 0)
(0.525283 0.097533 0)
(0.498727 0.094975 0)
(0.46814 0.0875366 0)
(0.433486 0.0856074 0)
(0.398136 0.0883024 0)
(0.365217 0.0884514 0)
(0.336494 0.0891678 0)
(0.312156 0.0959669 0)
(0.291138 0.103997 0)
(0.272856 0.107971 0)
(0.258142 0.106864 0)
(0.245673 0.104204 0)
(0.23307 0.103229 0)
(0.219704 0.103996 0)
(0.205961 0.106035 0)
(0.192859 0.111402 0)
(0.182248 0.122327 0)
(0.173113 0.136131 0)
(0.160899 0.145642 0)
(0.146486 0.148821 0)
(0.130032 0.148318 0)
(0.111061 0.145402 0)
(0.0912228 0.138955 0)
(0.0683758 0.135624 0)
(0.0421843 0.139337 0)
(0.00787507 0.13604 0)
(3 5.04597e-17 0)
(3 3.68149e-16 0)
(3 2.43607e-16 0)
(3 -1.51725e-16 0)
(3 1.67189e-16 0)
(3 -3.81757e-17 0)
(3 -2.20542e-16 0)
(3 -7.2177e-16 0)
(3 -8.98222e-16 0)
(3 -4.54658e-16 0)
(3 -3.78321e-16 0)
(3 -9.92796e-17 0)
(3 -3.9974e-16 0)
(3 1.04345e-16 0)
(3 4.35454e-16 0)
(3 1.02563e-15 0)
(3 8.64605e-16 0)
(3 -1.74852e-16 0)
(3 -3.1706e-16 0)
(3 2.06309e-16 0)
(3 -2.72088e-18 0)
(3 -5.631e-17 0)
(3 -1.51872e-16 0)
(3 8.55909e-16 0)
(3 6.2377e-16 0)
(3 7.46222e-16 0)
(3 1.44639e-15 0)
(3 1.68502e-15 0)
(3 1.31427e-15 0)
(3 1.22323e-15 0)
(3 9.90788e-16 0)
(3 1.20797e-15 0)
(3 1.59603e-15 0)
(3 1.63359e-15 0)
(3 9.52665e-16 0)
(3 3.793e-16 0)
(3 2.71355e-16 0)
(3 2.28109e-16 0)
(3 4.73428e-16 0)
(3 1.06161e-15 0)
(3 1.1561e-15 0)
(3 5.60825e-16 0)
(3 2.39058e-16 0)
(3 9.34515e-17 0)
(3 2.11125e-16 0)
(3 2.44591e-16 0)
(3 7.6766e-16 0)
(3 8.41858e-16 0)
(3 5.29978e-16 0)
(3 8.39865e-16 0)
(3 2.90678e-16 0)
(3 3.12578e-14 0)
(3 -5.05674e-13 0)
(3 1.21904e-10 0)
(3 -3.06602e-09 0)
(2.99999 5.19799e-07 0)
(2.99963 -1.37804e-05 0)
(2.97641 0.00213738 0)
(1.26903 -0.0591313 0)
(0.736365 0.0971766 0)
(0.685399 0.203822 0)
(0.659559 0.197956 0)
(0.635735 0.161419 0)
(0.626826 0.106619 0)
(0.608554 0.0918919 0)
(0.59929 0.103315 0)
(0.593083 0.129215 0)
(0.575985 0.138554 0)
(0.562141 0.125876 0)
(0.544331 0.11905 0)
(0.528646 0.124182 0)
(0.509672 0.124842 0)
(0.489443 0.119525 0)
(0.466588 0.116955 0)
(0.439964 0.117916 0)
(0.40946 0.115319 0)
(0.377088 0.113538 0)
(0.346122 0.118972 0)
(0.318655 0.127051 0)
(0.294302 0.129333 0)
(0.274097 0.125521 0)
(0.256422 0.120668 0)
(0.23912 0.118749 0)
(0.221409 0.119654 0)
(0.203206 0.121866 0)
(0.185287 0.126417 0)
(0.169311 0.135777 0)
(0.156514 0.148416 0)
(0.144018 0.158465 0)
(0.130915 0.163147 0)
(0.116721 0.164694 0)
(0.100662 0.16379 0)
(0.083691 0.15912 0)
(0.0632899 0.158247 0)
(0.0398439 0.166452 0)
(0.00678261 0.16331 0)
(3 3.1662e-17 0)
(3 9.55162e-18 0)
(3 3.74547e-16 0)
(3 3.81586e-16 0)
(3 -2.95239e-17 0)
(3 1.39459e-16 0)
(3 5.27926e-16 0)
(3 -3.04618e-16 0)
(3 -2.93144e-16 0)
(3 5.42533e-17 0)
(3 1.29269e-16 0)
(3 -1.09028e-15 0)
(3 -1.23039e-15 0)
(3 -6.16213e-16 0)
(3 -2.86726e-16 0)
(3 -5.39222e-16 0)
(3 -3.42501e-16 0)
(3 -1.24453e-15 0)
(3 -7.01239e-16 0)
(3 -7.99345e-16 0)
(3 -5.9155e-16 0)
(3 -3.64848e-16 0)
(3 2.33753e-16 0)
(3 4.92387e-16 0)
(3 1.13777e-15 0)
(3 1.28384e-15 0)
(3 1.29126e-15 0)
(3 5.38561e-16 0)
(3 4.80472e-16 0)
(3 1.38282e-15 0)
(3 1.5814e-15 0)
(3 8.50004e-16 0)
(3 1.0812e-15 0)
(3 6.83493e-16 0)
(3 3.60161e-16 0)
(3 3.61117e-17 0)
(3 3.19141e-16 0)
(3 -3.48614e-18 0)
(3 -7.68682e-17 0)
(3 -3.46094e-16 0)
(3 -2.20925e-16 0)
(3 4.82247e-16 0)
(3 5.95614e-17 0)
(3 4.6325e-20 0)
(3 2.18196e-16 0)
(3 1.85979e-16 0)
(3 5.35489e-16 0)
(3 1.07901e-15 0)
(3 1.22577e-15 0)
(3 8.84237e-16 0)
(3 1.8517e-15 0)
(3 3.1209e-14 0)
(3 -2.89599e-13 0)
(3 1.30975e-10 0)
(3 -2.19131e-09 0)
(2.99999 5.65198e-07 0)
(2.99966 -1.05076e-05 0)
(2.97806 0.0023895 0)
(1.35627 -0.0487175 0)
(0.737158 0.123582 0)
(0.651023 0.222289 0)
(0.618437 0.209186 0)
(0.604514 0.167243 0)
(0.603264 0.111227 0)
(0.595448 0.0948077 0)
(0.589389 0.105789 0)
(0.581542 0.138405 0)
(0.56191 0.151473 0)
(0.546728 0.139923 0)
(0.530108 0.13084 0)
(0.515794 0.13717 0)
(0.498406 0.140781 0)
(0.479934 0.137989 0)
(0.460097 0.139004 0)
(0.439364 0.144844 0)
(0.416599 0.146171 0)
(0.393067 0.145887 0)
(0.369321 0.149858 0)
(0.345467 0.154854 0)
(0.321797 0.152873 0)
(0.299708 0.14523 0)
(0.277278 0.138316 0)
(0.253937 0.136297 0)
(0.230058 0.138291 0)
(0.205997 0.141281 0)
(0.18302 0.14523 0)
(0.162877 0.152872 0)
(0.146997 0.163529 0)
(0.133455 0.172175 0)
(0.120664 0.176937 0)
(0.107203 0.179639 0)
(0.0922695 0.180341 0)
(0.0763222 0.177471 0)
(0.0570419 0.178547 0)
(0.0363697 0.191434 0)
(0.00737135 0.189311 0)
(3 6.0722e-18 0)
(3 -2.32397e-16 0)
(3 -2.12188e-16 0)
(3 2.78845e-16 0)
(3 4.27171e-16 0)
(3 1.91298e-16 0)
(3 2.45706e-16 0)
(3 7.3251e-16 0)
(3 3.62908e-16 0)
(3 1.12253e-16 0)
(3 -8.17937e-16 0)
(3 -4.94042e-16 0)
(3 -5.65978e-16 0)
(3 -1.07275e-15 0)
(3 -1.27826e-15 0)
(3 -1.26503e-15 0)
(3 -1.499e-15 0)
(3 -1.10828e-15 0)
(3 -4.53229e-16 0)
(3 -4.14909e-16 0)
(3 -4.06396e-16 0)
(3 -4.66945e-16 0)
(3 -3.41703e-16 0)
(3 -4.67799e-17 0)
(3 4.82399e-16 0)
(3 1.03151e-15 0)
(3 1.04017e-15 0)
(3 1.05867e-15 0)
(3 9.81095e-16 0)
(3 4.43367e-16 0)
(3 6.91517e-16 0)
(3 3.72022e-16 0)
(3 -1.36469e-16 0)
(3 4.09264e-16 0)
(3 2.00289e-16 0)
(3 5.37765e-17 0)
(3 2.21035e-16 0)
(3 4.41104e-16 0)
(3 7.23572e-16 0)
(3 1.57823e-16 0)
(3 -9.63764e-16 0)
(3 -1.43169e-15 0)
(3 -3.144e-16 0)
(3 1.59827e-16 0)
(3 1.30239e-15 0)
(3 8.18092e-16 0)
(3 6.49436e-16 0)
(3 4.43179e-16 0)
(3 4.81145e-16 0)
(3 1.19696e-15 0)
(3 1.58736e-15 0)
(3 2.83681e-14 0)
(3 1.93301e-13 0)
(3 1.18585e-10 0)
(3 -5.76784e-10 0)
(3 5.14644e-07 0)
(2.99968 -6.12083e-06 0)
(2.97965 0.00223677 0)
(1.4332 -0.0437582 0)
(0.740537 0.167883 0)
(0.635271 0.245623 0)
(0.615131 0.224045 0)
(0.608385 0.167892 0)
(0.608052 0.109847 0)
(0.598109 0.0996544 0)
(0.586248 0.11804 0)
(0.570758 0.157354 0)
(0.546253 0.168934 0)
(0.530427 0.154959 0)
(0.514575 0.144042 0)
(0.49932 0.148816 0)
(0.482075 0.152549 0)
(0.463831 0.149093 0)
(0.444629 0.150654 0)
(0.42703 0.160008 0)
(0.40823 0.165132 0)
(0.390078 0.167767 0)
(0.37326 0.173798 0)
(0.356297 0.179566 0)
(0.337653 0.178028 0)
(0.31682 0.171326 0)
(0.291979 0.165127 0)
(0.264487 0.162868 0)
(0.236589 0.163817 0)
(0.209642 0.165553 0)
(0.184769 0.16749 0)
(0.163048 0.172423 0)
(0.145472 0.180525 0)
(0.130653 0.18736 0)
(0.117079 0.191633 0)
(0.102888 0.195134 0)
(0.0870222 0.197358 0)
(0.0697989 0.196195 0)
(0.0505382 0.197857 0)
(0.0322668 0.212165 0)
(0.0161066 0.212393 0)
(3 -2.91825e-17 0)
(3 -6.27943e-16 0)
(3 -2.77901e-16 0)
(3 -4.00351e-16 0)
(3 -5.73919e-16 0)
(3 -4.57918e-18 0)
(3 6.86784e-16 0)
(3 8.33426e-16 0)
(3 7.59087e-16 0)
(3 -4.25171e-16 0)
(3 3.67669e-16 0)
(3 3.51089e-16 0)
(3 6.38653e-16 0)
(3 -3.46099e-16 0)
(3 -7.77279e-16 0)
(3 -8.84241e-16 0)
(3 -6.1222e-16 0)
(3 -2.60242e-16 0)
(3 -1.38373e-16 0)
(3 3.47759e-16 0)
(3 2.18786e-16 0)
(3 2.42407e-16 0)
(3 -1.04961e-16 0)
(3 -3.69247e-16 0)
(3 -4.8679e-16 0)
(3 4.67069e-16 0)
(3 4.60309e-16 0)
(3 2.4215e-16 0)
(3 8.07775e-16 0)
(3 1.02355e-15 0)
(3 1.06185e-15 0)
(3 1.27201e-15 0)
(3 1.2542e-15 0)
(3 1.10163e-15 0)
(3 9.19147e-16 0)
(3 1.3992e-15 0)
(3 7.32991e-16 0)
(3 -1.93918e-16 0)
(3 -5.71873e-16 0)
(3 -1.23669e-15 0)
(3 -1.22158e-15 0)
(3 -7.94598e-16 0)
(3 2.70422e-16 0)
(3 6.57926e-16 0)
(3 -3.63965e-17 0)
(3 3.48834e-16 0)
(3 3.13585e-16 0)
(3 3.83406e-16 0)
(3 7.05785e-16 0)
(3 8.8441e-16 0)
(3 1.28807e-15 0)
(3 2.93705e-14 0)
(3 3.75524e-13 0)
(3 1.20141e-10 0)
(3 1.1396e-10 0)
(3 5.24262e-07 0)
(2.99971 -4.58429e-06 0)
(2.98142 0.00232114 0)
(1.52763 -0.044614 0)
(0.758784 0.22127 0)
(0.64682 0.261638 0)
(0.630256 0.230955 0)
(0.632032 0.167412 0)
(0.6295 0.109104 0)
(0.616903 0.103542 0)
(0.606275 0.132821 0)
(0.586458 0.182728 0)
(0.55679 0.192018 0)
(0.536949 0.174722 0)
(0.517918 0.161427 0)
(0.499527 0.165523 0)
(0.479699 0.170368 0)
(0.458151 0.166794 0)
(0.436112 0.167088 0)
(0.417069 0.175595 0)
(0.399354 0.180637 0)
(0.383898 0.183481 0)
(0.371698 0.190618 0)
(0.360214 0.197844 0)
(0.346125 0.198861 0)
(0.328534 0.195304 0)
(0.305585 0.191601 0)
(0.278507 0.190106 0)
(0.249834 0.190343 0)
(0.22157 0.190852 0)
(0.195101 0.190807 0)
(0.171485 0.192928 0)
(0.151779 0.198163 0)
(0.135156 0.203089 0)
(0.120077 0.206985 0)
(0.104474 0.211557 0)
(0.0875874 0.215804 0)
(0.0689624 0.216804 0)
(0.0484771 0.218608 0)
(0.0282081 0.229965 0)
(0.0192103 0.235098 0)
(3 3.30793e-17 0)
(3 9.34595e-17 0)
(3 -5.81349e-17 0)
(3 -3.2061e-16 0)
(3 -3.15677e-16 0)
(3 -2.68463e-17 0)
(3 6.01465e-16 0)
(3 4.15456e-16 0)
(3 2.26354e-16 0)
(3 2.64511e-16 0)
(3 8.22331e-17 0)
(3 -6.42465e-17 0)
(3 -7.62034e-16 0)
(3 6.54845e-16 0)
(3 3.10672e-16 0)
(3 1.94905e-16 0)
(3 -4.91695e-16 0)
(3 -7.83779e-16 0)
(3 -4.32924e-16 0)
(3 -6.84557e-17 0)
(3 8.20586e-16 0)
(3 9.18605e-16 0)
(3 2.21404e-16 0)
(3 2.16983e-16 0)
(3 5.1089e-16 0)
(3 2.52063e-16 0)
(3 2.88235e-16 0)
(3 6.57946e-16 0)
(3 1.05285e-15 0)
(3 1.55074e-15 0)
(3 1.72525e-15 0)
(3 1.82889e-15 0)
(3 1.5005e-15 0)
(3 5.24243e-16 0)
(3 9.60367e-16 0)
(3 4.26767e-16 0)
(3 1.39251e-16 0)
(3 3.54164e-16 0)
(3 5.25179e-17 0)
(3 -1.1051e-15 0)
(3 -1.40281e-15 0)
(3 -1.70092e-15 0)
(3 -1.2142e-15 0)
(3 -7.76583e-16 0)
(3 -6.5106e-16 0)
(3 -3.88084e-16 0)
(3 -3.20276e-16 0)
(3 -2.6669e-16 0)
(3 -1.52116e-16 0)
(3 3.44517e-16 0)
(3 1.75208e-15 0)
(3 3.25411e-14 0)
(3 7.03463e-13 0)
(3 1.20369e-10 0)
(3 1.6294e-09 0)
(3 5.11287e-07 0)
(2.99974 1.25366e-06 0)
(2.98328 0.00226959 0)
(1.59914 -0.0247583 0)
(0.734167 0.26724 0)
(0.63175 0.271317 0)
(0.625828 0.232026 0)
(0.632486 0.152937 0)
(0.635145 0.109492 0)
(0.622265 0.114332 0)
(0.607041 0.155843 0)
(0.580157 0.209454 0)
(0.5513 0.213015 0)
(0.536591 0.19282 0)
(0.520166 0.177272 0)
(0.502509 0.180863 0)
(0.483018 0.188138 0)
(0.460269 0.185726 0)
(0.436907 0.185501 0)
(0.41663 0.193312 0)
(0.398622 0.197278 0)
(0.383973 0.198314 0)
(0.373293 0.204323 0)
(0.364899 0.211947 0)
(0.353791 0.215529 0)
(0.33902 0.215705 0)
(0.319088 0.215643 0)
(0.294509 0.216208 0)
(0.267191 0.216707 0)
(0.23908 0.216632 0)
(0.211687 0.21528 0)
(0.186264 0.215072 0)
(0.163872 0.217627 0)
(0.144519 0.220546 0)
(0.127061 0.223847 0)
(0.109369 0.229227 0)
(0.09087 0.235232 0)
(0.0705462 0.238334 0)
(0.0488285 0.241079 0)
(0.0270398 0.248063 0)
(0.018002 0.255828 0)
(3 -1.48125e-16 0)
(3 3.48889e-16 0)
(3 9.64638e-17 0)
(3 3.26559e-16 0)
(3 4.78931e-16 0)
(3 2.363e-16 0)
(3 1.02325e-16 0)
(3 -2.47946e-16 0)
(3 -1.95777e-16 0)
(3 -6.59501e-16 0)
(3 -6.02436e-16 0)
(3 -9.67008e-16 0)
(3 -5.68295e-16 0)
(3 -2.60429e-16 0)
(3 7.28566e-17 0)
(3 2.57339e-16 0)
(3 1.0789e-15 0)
(3 8.29021e-16 0)
(3 3.39369e-16 0)
(3 8.50633e-16 0)
(3 3.78016e-16 0)
(3 4.91565e-16 0)
(3 3.03475e-16 0)
(3 1.91748e-16 0)
(3 -3.15218e-16 0)
(3 -2.88788e-16 0)
(3 -4.97398e-17 0)
(3 1.63087e-16 0)
(3 1.84739e-16 0)
(3 5.07267e-18 0)
(3 4.91278e-16 0)
(3 9.34203e-16 0)
(3 8.50681e-16 0)
(3 9.59806e-16 0)
(3 1.4783e-16 0)
(3 -7.51292e-16 0)
(3 4.75922e-17 0)
(3 1.2684e-16 0)
(3 -1.31195e-17 0)
(3 -7.21551e-17 0)
(3 -9.45034e-16 0)
(3 -1.49802e-15 0)
(3 -1.60656e-15 0)
(3 -1.44941e-15 0)
(3 -9.5015e-16 0)
(3 -1.10876e-15 0)
(3 -4.19823e-16 0)
(3 -4.258e-17 0)
(3 5.71102e-16 0)
(3 1.05071e-15 0)
(3 1.67436e-15 0)
(3 3.11524e-14 0)
(3 1.07596e-12 0)
(3 1.23749e-10 0)
(3 3.42215e-09 0)
(3 5.06745e-07 0)
(2.99978 8.65704e-06 0)
(2.98556 0.00216345 0)
(1.72318 0.0113458 0)
(0.729628 0.318626 0)
(0.630767 0.282731 0)
(0.638365 0.224055 0)
(0.652758 0.139744 0)
(0.652476 0.105728 0)
(0.637434 0.123843 0)
(0.616662 0.186948 0)
(0.580569 0.238172 0)
(0.551893 0.23302 0)
(0.541283 0.207862 0)
(0.525971 0.191301 0)
(0.508884 0.195459 0)
(0.49066 0.205881 0)
(0.468026 0.204866 0)
(0.444747 0.203929 0)
(0.423998 0.210525 0)
(0.405409 0.213221 0)
(0.390138 0.212204 0)
(0.378186 0.216884 0)
(0.369313 0.224867 0)
(0.358834 0.230602 0)
(0.345516 0.233853 0)
(0.32837 0.236896 0)
(0.307092 0.23968 0)
(0.282687 0.241327 0)
(0.25662 0.24161 0)
(0.229927 0.240198 0)
(0.203811 0.238806 0)
(0.179565 0.239259 0)
(0.157628 0.240276 0)
(0.137376 0.242751 0)
(0.117395 0.248536 0)
(0.0972224 0.2558 0)
(0.0754989 0.260726 0)
(0.0520067 0.264923 0)
(0.0283244 0.270274 0)
(0.0123038 0.27418 0)
(3 8.99764e-17 0)
(3 1.05239e-16 0)
(3 -1.28868e-16 0)
(3 -2.35207e-16 0)
(3 5.92042e-16 0)
(3 3.50279e-16 0)
(3 1.55385e-16 0)
(3 -5.25085e-16 0)
(3 -3.73679e-16 0)
(3 3.85561e-16 0)
(3 7.09426e-19 0)
(3 -1.30418e-16 0)
(3 -5.81462e-16 0)
(3 -7.36821e-16 0)
(3 -4.59948e-16 0)
(3 2.99468e-16 0)
(3 6.59243e-17 0)
(3 8.2389e-17 0)
(3 -7.56158e-18 0)
(3 -1.95422e-16 0)
(3 -5.54304e-16 0)
(3 -5.25882e-16 0)
(3 -6.4355e-17 0)
(3 -3.9296e-16 0)
(3 -8.46615e-17 0)
(3 -3.14391e-16 0)
(3 -8.07232e-16 0)
(3 -4.87681e-16 0)
(3 -2.63147e-16 0)
(3 -3.64513e-16 0)
(3 -8.2378e-17 0)
(3 2.17785e-16 0)
(3 1.39106e-16 0)
(3 -1.94617e-16 0)
(3 -1.49254e-16 0)
(3 -1.03599e-17 0)
(3 6.28706e-17 0)
(3 1.87815e-16 0)
(3 6.19219e-16 0)
(3 8.26565e-16 0)
(3 6.52167e-16 0)
(3 1.33413e-16 0)
(3 -1.08253e-15 0)
(3 -1.63036e-15 0)
(3 -1.22221e-15 0)
(3 -1.30535e-16 0)
(3 3.45435e-16 0)
(3 5.11393e-16 0)
(3 8.5506e-17 0)
(3 -2.84607e-16 0)
(3 -3.77531e-16 0)
(3 2.8797e-14 0)
(3 1.40681e-12 0)
(3 1.30098e-10 0)
(3 5.01999e-09 0)
(3 5.34383e-07 0)
(2.99982 1.66967e-05 0)
(2.98807 0.00216562 0)
(1.85174 0.0659984 0)
(0.718531 0.362708 0)
(0.635969 0.286614 0)
(0.666539 0.19681 0)
(0.68342 0.118162 0)
(0.674241 0.111216 0)
(0.649046 0.14902 0)
(0.616634 0.229473 0)
(0.575684 0.26513 0)
(0.551256 0.251202 0)
(0.546215 0.22081 0)
(0.532809 0.203639 0)
(0.516758 0.208672 0)
(0.500297 0.222392 0)
(0.478254 0.223253 0)
(0.455493 0.222099 0)
(0.434418 0.227878 0)
(0.414726 0.230136 0)
(0.397478 0.228219 0)
(0.382561 0.231817 0)
(0.370536 0.239742 0)
(0.35824 0.246225 0)
(0.344655 0.251037 0)
(0.328972 0.256103 0)
(0.310389 0.260915 0)
(0.289157 0.264089 0)
(0.266151 0.26552 0)
(0.241982 0.264945 0)
(0.217311 0.263564 0)
(0.192828 0.263141 0)
(0.169335 0.262941 0)
(0.146805 0.264565 0)
(0.124413 0.270281 0)
(0.102413 0.27807 0)
(0.079686 0.284218 0)
(0.0562935 0.289228 0)
(0.0331889 0.296569 0)
(-0.000386113 0.29306 0)
(3 -1.25014e-16 0)
(3 7.4645e-17 0)
(3 1.04537e-16 0)
(3 6.28983e-16 0)
(3 4.64501e-16 0)
(3 4.04319e-16 0)
(3 -3.62098e-17 0)
(3 7.29802e-16 0)
(3 -1.28822e-16 0)
(3 -3.69333e-16 0)
(3 8.83618e-17 0)
(3 -1.07677e-15 0)
(3 -1.19528e-15 0)
(3 -7.98764e-16 0)
(3 -6.47738e-16 0)
(3 -7.07444e-16 0)
(3 -6.25507e-16 0)
(3 -2.16849e-16 0)
(3 6.69224e-16 0)
(3 -3.77996e-16 0)
(3 -3.62778e-16 0)
(3 -9.77834e-16 0)
(3 -5.73021e-16 0)
(3 2.2112e-16 0)
(3 5.79101e-17 0)
(3 -6.46637e-16 0)
(3 3.94297e-18 0)
(3 5.35549e-16 0)
(3 4.8728e-16 0)
(3 3.32872e-16 0)
(3 -3.07964e-16 0)
(3 -4.85729e-16 0)
(3 6.18184e-16 0)
(3 8.02557e-16 0)
(3 7.10339e-16 0)
(3 9.01085e-17 0)
(3 -7.4702e-16 0)
(3 -6.93758e-16 0)
(3 -5.62086e-16 0)
(3 4.64888e-17 0)
(3 -1.06104e-17 0)
(3 3.32061e-16 0)
(3 5.18116e-16 0)
(3 -1.55332e-16 0)
(3 -3.64559e-16 0)
(3 -4.03465e-16 0)
(3 -2.1321e-16 0)
(3 2.49826e-16 0)
(3 2.92813e-16 0)
(3 -6.77545e-17 0)
(3 -1.87996e-16 0)
(3 2.26232e-14 0)
(3 1.49736e-12 0)
(3 1.2331e-10 0)
(3 5.89205e-09 0)
(3 5.63812e-07 0)
(2.99987 2.27881e-05 0)
(2.99132 0.00243927 0)
(2.05402 0.127584 0)
(0.726264 0.400513 0)
(0.663623 0.278532 0)
(0.712468 0.162192 0)
(0.71713 0.114099 0)
(0.692945 0.129662 0)
(0.6505 0.195857 0)
(0.604947 0.276405 0)
(0.568069 0.286474 0)
(0.550928 0.265117 0)
(0.550033 0.230722 0)
(0.538327 0.214411 0)
(0.523788 0.221421 0)
(0.507597 0.239277 0)
(0.485095 0.242293 0)
(0.462412 0.241329 0)
(0.441162 0.246961 0)
(0.420601 0.249509 0)
(0.401483 0.247573 0)
(0.383783 0.250211 0)
(0.368404 0.257245 0)
(0.35371 0.262839 0)
(0.339217 0.267257 0)
(0.32414 0.272752 0)
(0.307378 0.278832 0)
(0.288515 0.283413 0)
(0.268228 0.286425 0)
(0.246646 0.287542 0)
(0.224025 0.287469 0)
(0.200722 0.287508 0)
(0.177209 0.287091 0)
(0.153815 0.28823 0)
(0.130069 0.293784 0)
(0.106904 0.301761 0)
(0.0830788 0.308646 0)
(0.058298 0.313015 0)
(0.0341253 0.322627 0)
(-0.00463942 0.317093 0)
(3 -8.06373e-17 0)
(3 -2.34521e-16 0)
(3 -5.46623e-18 0)
(3 2.2323e-16 0)
(3 -5.55092e-16 0)
(3 -6.1013e-16 0)
(3 -4.829e-16 0)
(3 -3.45016e-16 0)
(3 5.21137e-16 0)
(3 2.71031e-16 0)
(3 -4.30109e-16 0)
(3 -8.70352e-16 0)
(3 -1.01669e-15 0)
(3 -9.38901e-16 0)
(3 -7.47914e-16 0)
(3 -2.66597e-16 0)
(3 9.33427e-16 0)
(3 1.64761e-15 0)