/*--------------------------------*- C++ -*----------------------------------*\
| =========                 |                                                 |
| \\      /  F ield         | OpenFOAM: The Open Source CFD Toolbox           |
|  \\    /   O peration     | Version:  v1812                                 |
|   \\  /    A nd           | Web:      www.OpenFOAM.com                      |
|    \\/     M anipulation  |                                                 |
\*---------------------------------------------------------------------------*/
FoamFile
{
    version     2.0;
    format      ascii;
    class       volScalarField;
    location    "1.2";
    object      p;
}
// * * * * * * * * * * * * * * * * * * * * * * * * * * * * * * * * * * * * * //

dimensions      [1 -1 -2 0 0 0 0];


internalField   nonuniform List<scalar> 
20400
(
100623
100623
100624
100625
100623
100626
100624
100625
100621
100621
100617
100616
100610
100608
100602
100600
100595
100593
100589
100588
100583
100583
100580
100581
100577
100578
100574
100575
100570
100570
100564
100565
100557
100557
100550
100549
100541
100540
100533
100531
100525
100524
100518
100519
100513
100515
100511
100512
100510
100510
100510
100509
100510
100510
100511
100515
100514
100515
100515
100517
100518
100522
100522
100523
100524
100524
100522
100520
100518
100514
100510
100505
100500
100493
100488
100479
100471
100463
100452
100438
100428
100416
100399
100391
100375
100360
100342
100329
100309
100297
100275
100262
100240
100229
100206
100196
100172
100168
100145
100142
100123
100125
100115
100115
100110
100123
100129
100125
100139
100148
100161
100176
100189
100207
100223
100237
100242
100251
100257
100266
100275
100275
100283
100279
100282
100286
100282
100284
100286
100282
100286
100282
100285
100283
100283
100280
100278
100275
100271
100269
100266
100263
100260
100258
100256
100254
100252
100251
100251
100248
100248
100248
100249
100251
100252
100254
100255
100255
100257
100258
100260
100263
100263
100265
100265
100267
100267
100269
100271
100274
100275
100278
100279
100284
100285
100292
100295
100302
100307
100316
100328
100345
100357
100368
100383
100397
100415
100429
100441
100456
100462
100476
100492
100499
100506
100520
100525
100537
100544
100552
100560
100567
100576
100581
100589
100594
100600
100604
100609
100615
100619
100623
100626
100631
100633
100639
100641
100647
100649
100652
100655
100661
100659
100661
100661
100663
100665
100666
100666
100664
100668
100667
100671
100665
100659
100664
100662
100660
100656
100658
100659
100658
100659
100660
100663
100662
100667
100668
100673
100676
100681
100686
100690
100697
100702
100707
100714
100719
100726
100732
100737
100743
100749
100754
100758
100764
100768
100773
100779
100781
100782
100785
100789
100790
100793
100791
100797
100798
100798
100802
100804
100805
100809
100811
100812
100811
100811
100811
100810
100809
100808
100807
100806
100804
100803
100801
100800
100798
100796
100794
100792
100791
100788
100788
100786
100787
100787
100788
100786
100785
100785
100784
100783
100782
100783
100782
100783
100783
100783
100784
100783
100783
100785
100786
100786
100789
100790
100792
100793
100796
100799
100802
100804
100808
100809
100813
100815
100819
100822
100826
100829
100834
100837
100843
100846
100853
100857
100864
100870
100877
100884
100892
100900
100907
100916
100923
100932
100940
100948
100959
100967
100979
100987
100994
101002
101014
101022
101029
101038
101045
101053
101061
101068
101074
101082
101085
101092
101097
101103
101108
101114
101119
101124
101128
101133
101137
101140
101144
101147
101150
101153
101156
101159
101161
101164
101166
101168
101170
101171
101172
101173
101174
101175
101176
101177
101178
101179
101180
101180
101180
101179
101178
101178
101177
101176
101176
101175
101175
101174
101173
101173
101172
101171
101169
101168
101165
101164
101161
101160
101157
101156
101154
101152
101151
101149
101148
101146
101145
101144
101143
101142
101141
101141
101140
101140
101139
101139
101139
101139
101139
101139
101139
101139
101140
101141
101141
101142
101143
101145
101146
101148
101150
101152
101154
101156
101159
101162
101165
101168
101171
101175
101179
101183
101187
101191
101195
101199
101203
101208
101212
101217
101222
101226
101231
101237
101242
101247
101253
101259
101264
101270
101276
101281
101287
101293
101299
101305
101310
101316
101322
100623
100625
100624
100624
100626
100623
100626
100621
100625
100618
100620
100612
100613
100604
100606
100597
100598
100590
100592
100586
100587
100581
100583
100578
100581
100572
100578
100570
100575
100565
100570
100559
100565
100553
100556
100543
100548
100535
100538
100528
100529
100522
100522
100516
100517
100511
100514
100508
100511
100508
100511
100510
100510
100508
100512
100510
100515
100513
100515
100514
100519
100516
100521
100519
100522
100521
100520
100519
100515
100514
100507
100505
100496
100494
100485
100479
100469
100461
100451
100438
100428
100416
100402
100388
100377
100358
100347
100324
100318
100292
100284
100255
100252
100224
100219
100192
100188
100163
100159
100138
100136
100124
100117
100109
100111
100118
100126
100131
100141
100153
100161
100174
100187
100197
100217
100224
100224
100236
100246
100251
100261
100261
100265
100267
100266
100274
100270
100272
100277
100277
100275
100274
100269
100274
100269
100277
100275
100275
100272
100269
100267
100263
100260
100258
100255
100255
100251
100252
100250
100248
100248
100249
100250
100251
100253
100256
100259
100259
100262
100263
100266
100262
100268
100267
100270
100271
100272
100274
100275
100278
100280
100282
100285
100286
100290
100292
100297
100303
100311
100320
100327
100338
100348
100362
100374
100389
100403
100421
100432
100444
100460
100461
100479
100483
100495
100506
100520
100533
100542
100550
100557
100566
100573
100581
100587
100594
100598
100605
100610
100613
100622
100618
100630
100627
100638
100635
100646
100645
100653
100650
100659
100660
100663
100661
100667
100665
100669
100675
100675
100670
100667
100672
100671
100672
100671
100666
100665
100665
100662
100660
100659
100660
100657
100661
100661
100663
100664
100667
100671
100675
100679
100684
100691
100697
100704
100709
100713
100720
100724
100729
100734
100738
100744
100746
100751
100757
100761
100767
100770
100775
100775
100780
100783
100786
100786
100793
100789
100791
100791
100795
100797
100800
100804
100808
100810
100811
100811
100811
100810
100809
100808
100807
100806
100805
100803
100801
100799
100798
100796
100794
100793
100792
100794
100792
100794
100792
100790
100787
100790
100788
100787
100788
100786
100786
100785
100786
100785
100785
100784
100785
100785
100783
100784
100785
100786
100788
100790
100792
100794
100794
100799
100801
100805
100807
100812
100812
100818
100819
100824
100826
100831
100834
100839
100842
100847
100851
100857
100862
100869
100876
100884
100892
100900
100909
100916
100925
100932
100941
100949
100956
100964
100971
100981
100991
101000
101008
101014
101023
101031
101039
101046
101056
101061
101070
101075
101084
101086
101092
101098
101104
101110
101116
101121
101126
101130
101135
101139
101143
101146
101149
101152
101155
101158
101161
101163
101165
101167
101169
101170
101172
101173
101174
101175
101176
101178
101179
101180
101181
101181
101181
101180
101180
101180
101178
101178
101177
101177
101176
101175
101175
101174
101173
101172
101171
101168
101167
101163
101163
101160
101159
101157
101155
101154
101152
101151
101149
101148
101147
101145
101144
101142
101141
101140
101139
101138
101138
101137
101137
101137
101137
101137
101138
101138
101138
101139
101141
101142
101143
101144
101146
101147
101149
101151
101153
101156
101158
101161
101164
101168
101171
101175
101178
101182
101186
101190
101195
101199
101203
101208
101212
101217
101221
101226
101231
101237
101242
101247
101253
101259
101264
101270
101276
101281
101287
101293
101299
101304
101310
101316
101322
100626
100625
100626
100625
100624
100627
100623
100626
100619
100622
100614
100617
100608
100609
100601
100601
100593
100595
100587
100589
100582
100585
100579
100582
100575
100581
100571
100578
100568
100574
100562
100569
100554
100561
100547
100552
100538
100543
100530
100533
100524
100525
100518
100519
100511
100515
100506
100512
100506
100509
100506
100508
100506
100510
100505
100518
100510
100516
100514
100518
100515
100526
100522
100527
100523
100525
100523
100520
100519
100514
100512
100506
100502
100494
100489
100479
100472
100462
100452
100441
100429
100417
100403
100394
100374
100363
100342
100338
100309
100306
100275
100271
100240
100235
100207
100199
100174
100167
100143
100139
100119
100114
100103
100107
100104
100108
100109
100117
100119
100134
100152
100158
100188
100194
100218
100227
100237
100236
100257
100256
100275
100264
100281
100267
100282
100280
100281
100278
100282
100279
100283
100278
100283
100276
100280
100274
100274
100272
100270
100269
100266
100264
100261
100257
100256
100253
100253
100251
100252
100250
100249
100249
100250
100252
100253
100256
100257
100257
100257
100258
100261
100263
100263
100268
100264
100271
100268
100273
100271
100277
100276
100281
100280
100286
100285
100292
100293
100302
100307
100317
100327
100341
100349
100367
100375
100393
100406
100424
100435
100447
100456
100474
100489
100498
100504
100516
100519
100533
100541
100550
100557
100564
100575
100579
100589
100592
100600
100606
100607
100622
100610
100633
100617
100640
100626
100646
100637
100651
100649
100657
100655
100665
100662
100665
100665
100671
100668
100668
100667
100673
100667
100666
100671
100669
100662
100659
100663
100661
100658
100657
100663
100659
100662
100665
100666
100666
100667
100671
100674
100678
100682
100686
100689
100694
100698
100703
100712
100716
100725
100726
100738
100738
100750
100748
100756
100759
100768
100770
100779
100777
100784
100782
100789
100788
100791
100790
100796
100796
100799
100801
100803
100804
100808
100806
100811
100809
100811
100810
100810
100809
100808
100807
100806
100804
100803
100801
100800
100798
100797
100796
100794
100794
100792
100792
100787
100788
100787
100789
100787
100785
100785
100784
100785
100781
100784
100784
100784
100784
100784
100787
100785
100786
100789
100789
100790
100791
100793
100795
100797
100800
100802
100805
100807
100811
100811
100816
100817
100822
100824
100829
100831
100836
100839
100844
100849
100854
100859
100865
100871
100877
100883
100889
100897
100904
100911
100919
100928
100935
100948
100953
100968
100974
100981
100991
101005
101010
101020
101027
101039
101041
101052
101059
101066
101072
101078
101083
101091
101097
101103
101108
101113
101118
101123
101128
101132
101136
101140
101144
101147
101150
101153
101156
101159
101161
101163
101165
101168
101169
101171
101172
101173
101174
101175
101177
101177
101179
101179
101180
101179
101180
101178
101179
101177
101177
101176
101176
101175
101175
101174
101174
101173
101171
101170
101168
101166
101165
101164
101161
101159
101157
101156
101154
101152
101151
101149
101148
101146
101145
101144
101143
101142
101141
101141
101140
101140
101139
101139
101139
101138
101138
101139
101139
101139
101140
101140
101142
101142
101143
101145
101146
101148
101150
101152
101154
101156
101159
101162
101165
101168
101171
101175
101179
101183
101187
101191
101195
101199
101203
101208
101212
101217
101222
101226
101232
101237
101242
101247
101253
101258
101264
101270
101276
101281
101287
101293
101299
101304
101310
101316
101322
100626
100627
100626
100627
100625
100625
100626
100621
100626
100617
100619
100611
100612
100603
100605
100597
100597
100589
100591
100585
100587
100580
100583
100577
100580
100571
100580
100569
100575
100563
100570
100557
100567
100553
100556
100544
100548
100536
100538
100528
100528
100520
100522
100515
100515
100507
100511
100503
100507
100504
100508
100507
100510
100504
100511
100500
100515
100506
100514
100508
100521
100507
100526
100513
100525
100514
100523
100515
100517
100513
100510
100506
100500
100495
100487
100480
100471
100461
100452
100443
100432
100423
100411
100393
100383
100361
100354
100331
100325
100298
100295
100264
100259
100232
100223
100198
100184
100162
100150
100123
100127
100097
100106
100096
100101
100103
100105
100121
100120
100132
100145
100164
100167
100194
100217
100223
100231
100244
100239
100254
100267
100268
100270
100272
100267
100281
100274
100278
100281
100278
100280
100279
100278
100276
100274
100273
100272
100271
100270
100268
100266
100264
100260
100259
100254
100256
100251
100254
100251
100251
100248
100249
100251
100253
100254
100257
100259
100258
100257
100260
100261
100262
100266
100266
100268
100271
100270
100274
100273
100278
100280
100280
100283
100284
100286
100290
100293
100297
100307
100313
100325
100332
100351
100357
100374
100383
100403
100421
100433
100444
100458
100473
100490
100491
100504
100511
100520
100533
100540
100549
100554
100566
100572
100581
100586
100595
100600
100603
100615
100606
100633
100608
100642
100618
100651
100623
100652
100639
100656
100651
100662
100656
100670
100665
100666
100668
100674
100669
100669
100673
100673
100668
100669
100668
100670
100661
100656
100665
100665
100660
100653
100661
100657
100662
100661
100661
100664
100666
100668
100673
100677
100683
100689
100695
100699
100705
100708
100717
100720
100730
100732
100740
100745
100750
100752
100759
100763
100769
100776
100778
100778
100782
100786
100788
100789
100791
100796
100796
100795
100800
100801
100803
100805
100807
100807
100811
100808
100810
100809
100808
100808
100807
100806
100805
100803
100803
100800
100800
100798
100797
100796
100795
100794
100793
100790
100789
100788
100790
100787
100789
100785
100788
100783
100785
100782
100785
100784
100784
100785
100785
100785
100784
100785
100787
100786
100789
100792
100793
100798
100798
100801
100803
100808
100809
100814
100813
100819
100819
100825
100826
100832
100833
100840
100841
100848
100851
100858
100863
100869
100875
100883
100891
100898
100907
100913
100921
100929
100937
100944
100957
100964
100971
100981
100993
100999
101012
101017
101027
101035
101043
101049
101059
101064
101072
101079
101084
101091
101096
101101
101108
101113
101118
101123
101127
101131
101136
101140
101144
101147
101150
101153
101156
101158
101161
101163
101165
101167
101169
101170
101172
101173
101174
101176
101177
101179
101178
101181
101178
101182
101178
101181
101177
101180
101177
101178
101175
101177
101174
101175
101173
101174
101172
101171
101170
101167
101165
101163
101162
101159
101158
101156
101154
101153
101151
101150
101148
101147
101145
101144
101143
101142
101141
101140
101139
101139
101138
101138
101138
101138
101138
101138
101139
101139
101140
101141
101141
101142
101143
101145
101147
101148
101150
101152
101154
101156
101159
101162
101165
101168
101172
101175
101179
101182
101187
101191
101195
101199
101203
101208
101212
101217
101222
101227
101232
101237
101242
101248
101253
101259
101264
101270
101275
101282
101287
101293
101298
101304
101310
101316
101322
100626
100626
100627
100627
100627
100625
100625
100624
100620
100623
100616
100614
100608
100606
100601
100599
100594
100592
100587
100588
100582
100584
100579
100582
100577
100581
100572
100579
100569
100574
100564
100567
100556
100562
100551
100552
100543
100543
100534
100532
100526
100523
100519
100516
100512
100510
100504
100507
100503
100504
100501
100503
100502
100504
100501
100509
100504
100513
100511
100517
100512
100525
100508
100534
100511
100532
100513
100528
100514
100521
100511
100511
100502
100498
100490
100482
100474
100465
100455
100449
100438
100425
100414
100400
100385
100371
100355
100339
100322
100305
100286
100271
100247
100234
100209
100196
100171
100168
100132
100138
100094
100110
100084
100088
100089
100086
100098
100101
100118
100121
100141
100152
100172
100198
100197
100235
100237
100232
100242
100251
100271
100268
100276
100271
100274
100279
100280
100276
100282
100280
100281
100278
100279
100277
100276
100272
100272
100269
100267
100267
100265
100262
100261
100256
100258
100250
100255
100251
100255
100251
100250
100248
100252
100251
100254
100256
100258
100259
100257
100255
100263
100259
100266
100266
100266
100270
100271
100272
100275
100274
100280
100278
100282
100280
100287
100284
100293
100296
100304
100311
100318
100331
100343
100359
100370
100385
100397
100422
100431
100446
100457
100476
100485
100500
100498
100515
100517
100532
100540
100547
100556
100563
100574
100578
100588
100592
100598
100606
100605
100620
100606
100638
100611
100647
100620
100660
100623
100656
100639
100659
100656
100664
100659
100671
100665
100669
100672
100674
100666
100664
100674
100673
100664
100661
100670
100662
100655
100657
100664
100655
100654
100657
100660
100660
100661
100664
100661
100664
100668
100671
100676
100682
100686
100692
100699
100701
100710
100713
100722
100726
100735
100737
100744
100751
100753
100760
100764
100770
100778
100780
100781
100782
100789
100788
100790
100791
100796
100797
100797
100800
100802
100802
100808
100804
100811
100806
100812
100807
100809
100807
100807
100807
100806
100804
100806
100801
100803
100799
100801
100798
100798
100796
100794
100791
100789
100787
100790
100787
100788
100783
100788
100784
100787
100778
100786
100784
100785
100783
100786
100785
100784
100783
100787
100787
100788
100790
100791
100795
100796
100798
100801
100804
100806
100811
100811
100815
100816
100821
100822
100828
100829
100835
100836
100842
100846
100852
100856
100863
100868
100875
100882
100888
100898
100903
100913
100919
100928
100935
100945
100953
100963
100969
100981
100993
101001
101011
101020
101029
101038
101043
101051
101060
101066
101073
101080
101085
101092
101097
101103
101108
101113
101118
101123
101128
101132
101136
101140
101143
101147
101150
101153
101155
101158
101161
101163
101165
101168
101169
101171
101172
101173
101174
101175
101177
101177
101180
101178
101182
101178
101182
101176
101181
101176
101179
101174
101178
101174
101177
101172
101175
101172
101172
101171
101170
101167
101165
101163
101161
101159
101157
101155
101154
101152
101151
101149
101148
101146
101146
101144
101143
101142
101141
101140
101140
101139
101139
101138
101138
101138
101138
101139
101138
101139
101139
101141
101142
101143
101144
101145
101146
101149
101150
101152
101154
101156
101159
101162
101165
101168
101171
101175
101178
101183
101186
101191
101195
101199
101203
101208
101212
101217
101222
101227
101232
101237
101242
101247
101253
101258
101265
101269
101276
101280
101288
101292
101298
101304
101310
101316
101322
100626
100628
100626
100626
100628
100626
100628
100624
100622
100620
100615
100613
100609
100605
100601
100598
100594
100592
100588
100586
100585
100582
100582
100580
100580
100577
100579
100574
100574
100569
100568
100563
100563
100552
100555
100546
100544
100536
100535
100527
100525
100517
100518
100507
100511
100502
100506
100498
100500
100499
100500
100502
100498
100504
100502
100499
100508
100502
100508
100510
100516
100514
100529
100513
100533
100513
100530
100511
100527
100510
100521
100507
100508
100499
100494
100486
100477
100469
100460
100450
100439
100429
100416
100404
100388
100374
100357
100343
100324
100310
100289
100269
100252
100228
100217
100186
100181
100145
100141
100101
100112
100076
100082
100075
100069
100080
100075
100097
100098
100121
100128
100149
100166
100170
100206
100235
100228
100234
100234
100248
100268
100271
100266
100274
100269
100279
100277
100277
100279
100280
100280
100278
100277
100275
100273
100272
100271
100267
100269
100266
100264
100265
100256
100260
100249
100259
100246
100256
100250
100253
100247
100250
100248
100254
100251
100257
100258
100260
100259
100256
100257
100262
100264
100268
100265
100271
100273
100275
100271
100281
100279
100280
100280
100282
100277
100289
100286
100295
100298
100305
100316
100322
100340
100352
100369
100378
100397
100412
100436
100439
100456
100472
100491
100487
100503
100507
100518
100531
100540
100546
100552
100565
100569
100579
100584
100591
100597
100600
100612
100605
100627
100604
100638
100616
100648
100621
100664
100624
100658
100642
100663
100655
100664
100664
100671
100667
100670
100673
100672
100667
100669
100674
100671
100664
100662
100665
100661
100660
100650
100661
100645
100661
100655
100658
100658
100656
100661
100659
100664
100669
100675
100678
100685
100689
100695
100703
100705
100715
100718
100726
100730
100739
100745
100748
100752
100758
100764
100769
100777
100781
100779
100783
100787
100789
100788
100792
100796
100797
100796
100801
100802
100802
100805
100807
100805
100813
100804
100812
100806
100809
100807
100807
100805
100808
100799
100809
100799
100805
100798
100801
100796
100797
100794
100793
100790
100790
100787
100790
100786
100786
100785
100787
100780
100788
100783
100786
100781
100784
100785
100786
100782
100784
100785
100787
100784
100790
100790
100795
100799
100799
100800
100803
100807
100810
100812
100814
100817
100819
100824
100825
100831
100832
100838
100841
100846
100850
100857
100861
100868
100874
100880
100890
100895
100905
100910
100919
100927
100934
100943
100954
100960
100970
100980
100990
101000
101012
101019
101029
101036
101043
101051
101059
101066
101074
101080
101086
101091
101098
101102
101109
101113
101118
101123
101128
101131
101137
101139
101144
101146
101151
101152
101155
101158
101160
101163
101165
101167
101169
101170
101172
101173
101175
101176
101176
101179
101177
101182
101178
101182
101178
101181
101176
101181
101175
101179
101173
101180
101172
101177
101172
101175
101171
101172
101170
101167
101166
101163
101161
101159
101157
101155
101154
101152
101151
101149
101147
101147
101144
101145
101142
101143
101141
101140
101139
101139
101138
101139
101138
101138
101138
101138
101139
101138
101140
101140
101142
101143
101144
101145
101147
101147
101151
101152
101154
101156
101159
101162
101165
101168
101171
101174
101179
101182
101187
101190
101196
101199
101204
101208
101213
101217
101222
101226
101232
101237
101242
101248
101253
101259
101264
101270
101275
101282
101286
101293
101298
101304
101310
101316
101322
100628
100625
100629
100627
100625
100628
100622
100626
100622
100619
100616
100611
100609
100603
100603
100597
100596
100592
100590
100587
100586
100582
100580
100580
100576
100580
100575
100577
100572
100572
100568
100568
100557
100561
100552
100547
100538
100539
100527
100529
100517
100521
100508
100513
100501
100506
100495
100499
100495
100496
100495
100493
100499
100496
100501
100499
100498
100507
100503
100512
100513
100517
100513
100534
100518
100533
100514
100530
100512
100528
100508
100519
100502
100506
100496
100490
100482
100474
100465
100455
100444
100433
100421
100407
100392
100376
100361
100343
100328
100308
100288
100271
100246
100229
100209
100191
100163
100149
100118
100114
100076
100081
100065
100057
100060
100055
100073
100075
100094
100105
100118
100138
100159
100175
100199
100225
100235
100223
100236
100251
100267
100263
100269
100268
100271
100275
100278
100275
100279
100278
100277
100277
100275
100274
100271
100271
100268
100267
100266
100264
100266
100255
100266
100250
100259
100241
100259
100243
100257
100248
100250
100244
100250
100246
100257
100252
100257
100255
100255
100261
100258
100255
100270
100263
100266
100269
100275
100272
100273
100276
100282
100279
100279
100278
100281
100276
100286
100285
100297
100302
100306
100324
100331
100350
100362
100381
100389
100418
100427
100442
100454
100474
100484
100497
100490
100514
100509
100529
100537
100543
100555
100560
100570
100575
100582
100590
100593
100602
100601
100614
100607
100629
100611
100637
100621
100649
100621
100662
100626
100659
100647
100661
100655
100668
100661
100674
100669
100666
100669
100668
100666
100665
100669
100667
100663
100656
100662
100653
100649
100652
100652
100653
100661
100657
100653
100659
100651
100662
100664
100668
100671
100680
100681
100687
100694
100699
100708
100710
100721
100721
100735
100735
100742
100748
100754
100760
100762
100773
100779
100778
100780
100783
100788
100789
100788
100793
100796
100796
100798
100800
100802
100803
100807
100805
100811
100804
100814
100804
100810
100805
100808
100805
100809
100801
100810
100794
100812
100796
100805
100796
100800
100793
100795
100791
100791
100786
100791
100788
100786
100783
100789
100780
100780
100784
100789
100782
100785
100779
100788
100783
100787
100779
100787
100785
100786
100788
100791
100795
100800
100802
100801
100800
100808
100809
100812
100814
100816
100819
100821
100826
100828
100833
100835
100841
100844
100851
100854
100861
100867
100872
100880
100885
100896
100901
100913
100915
100927
100933
100941
100950
100963
100968
100977
100992
100999
101014
101020
101030
101036
101044
101053
101060
101067
101075
101081
101085
101093
101095
101105
101107
101113
101119
101124
101128
101132
101135
101140
101142
101148
101148
101152
101155
101156
101161
101162
101165
101167
101169
101171
101172
101173
101175
101175
101177
101177
101180
101178
101181
101179
101182
101176
101181
101174
101181
101172
101181
101172
101179
101171
101177
101169
101175
101170
101171
101167
101165
101162
101160
101159
101157
101155
101154
101152
101151
101148
101148
101145
101146
101142
101145
101141
101142
101139
101140
101138
101139
101138
101138
101138
101138
101138
101138
101140
101138
101142
101141
101143
101144
101145
101146
101149
101150
101152
101154
101157
101159
101162
101165
101169
101171
101176
101178
101183
101186
101192
101194
101200
101203
101209
101212
101217
101222
101227
101232
101237
101242
101247
101253
101259
101265
101269
101276
101280
101287
101292
101298
101304
101310
101316
101322
100626
100629
100625
100627
100628
100622
100627
100619
100621
100617
100613
100612
100606
100605
100598
100599
100592
100590
100588
100585
100584
100579
100583
100577
100582
100574
100578
100573
100573
100568
100569
100560
100562
100553
100552
100541
100544
100533
100531
100521
100520
100511
100514
100499
100508
100493
100501
100489
100493
100491
100489
100492
100490
100494
100493
100498
100497
100498
100506
100505
100513
100514
100522
100513
100538
100515
100541
100514
100535
100512
100528
100507
100517
100496
100505
100492
100488
100479
100470
100459
100449
100437
100425
100411
100396
100381
100364
100351
100327
100311
100291
100267
100249
100226
100215
100182
100168
100135
100119
100091
100080
100060
100046
100050
100038
100051
100051
100069
100081
100103
100110
100136
100138
100173
100200
100227
100222
100227
100221
100253
100258
100268
100259
100271
100268
100275
100269
100276
100273
100276
100274
100274
100272
100270
100268
100268
100266
100265
100262
100266
100253
100269
100246
100267
100242
100261
100232
100260
100238
100255
100241
100250
100238
100254
100245
100258
100251
100256
100254
100262
100256
100258
100263
100269
100263
100272
100275
100273
100273
100277
100280
100279
100279
100277
100278
100277
100276
100288
100291
100295
100309
100313
100336
100339
100365
100367
100402
100404
100433
100433
100453
100469
100489
100485
100498
100499
100519
100523
100537
100542
100551
100559
100566
100573
100580
100585
100592
100595
100602
100604
100612
100611
100624
100617
100634
100623
100648
100624
100657
100628
100661
100643
100658
100654
100666
100665
100666
100665
100663
100668
100668
100664
100665
100669
100662
100656
100656
100663
100642
100651
100646
100651
100651
100656
100650
100648
100659
100653
100661
100663
100674
100671
100680
100684
100692
100700
100703
100713
100714
100728
100731
100735
100740
100753
100753
100758
100764
100774
100778
100779
100777
100787
100787
100788
100786
100794
100796
100795
100798
100799
100801
100804
100806
100808
100805
100814
100801
100815
100803
100810
100804
100810
100801
100811
100796
100811
100789
100813
100793
100805
100792
100798
100792
100794
100787
100789
100788
100792
100782
100782
100785
100783
100778
100788
100789
100791
100774
100784
100788
100788
100778
100786
100783
100789
100780
100790
100790
100800
100800
100803
100802
100803
100801
100813
100810
100814
100815
100817
100822
100824
100829
100830
100836
100839
100845
100848
100854
100860
100865
100872
100877
100887
100892
100902
100909
100916
100920
100934
100944
100948
100960
100970
100978
100986
101001
101014
101023
101031
101038
101042
101054
101060
101067
101075
101079
101086
101092
101098
101101
101110
101111
101120
101121
101128
101131
101136
101139
101144
101145
101149
101152
101153
101160
101159
101165
101163
101168
101168
101171
101172
101173
101174
101176
101177
101178
101178
101180
101176
101184
101175
101182
101174
101181
101174
101183
101173
101181
101172
101177
101171
101177
101167
101174
101167
101168
101165
101163
101159
101159
101156
101156
101152
101153
101150
101149
101147
101146
101143
101146
101140
101144
101139
101141
101139
101140
101137
101139
101138
101139
101138
101138
101139
101138
101141
101139
101143
101141
101145
101144
101147
101147
101151
101152
101154
101156
101160
101162
101166
101168
101171
101174
101179
101182
101187
101190
101197
101198
101205
101206
101213
101216
101222
101227
101232
101237
101242
101248
101253
101259
101264
101270
101275
101281
101286
101293
101298
101305
101309
101316
101322
100628
100625
100628
100627
100624
100628
100621
100623
100619
100615
100614
100607
100609
100599
100597
100593
100589
100589
100584
100586
100579
100582
100577
100582
100573
100580
100573
100575
100570
100571
100566
100567
100556
100558
100549
100545
100536
100537
100522
100526
100512
100515
100502
100509
100491
100502
100485
100491
100487
100484
100486
100485
100488
100488
100491
100490
100499
100497
100499
100505
100512
100515
100513
100529
100520
100539
100517
100538
100520
100532
100515
100527
100502
100520
100496
100502
100492
100483
100474
100466
100454
100443
100430
100416
100402
100385
100370
100345
100333
100308
100291
100273
100251
100226
100215
100190
100158
100131
100102
100090
100060
100054
100040
100029
100034
100033
100044
100060
100065
100078
100116
100135
100137
100161
100200
100208
100240
100208
100234
100246
100266
100245
100261
100261
100270
100267
100274
100266
100272
100270
100269
100271
100266
100268
100263
100265
100261
100261
100261
100252
100264
100239
100270
100239
100264
100236
100258
100230
100256
100232
100256
100235
100249
100235
100256
100247
100255
100247
100258
100258
100257
100257
100262