/*--------------------------------*- C++ -*----------------------------------*\
| =========                 |                                                 |
| \\      /  F ield         | OpenFOAM: The Open Source CFD Toolbox           |
|  \\    /   O peration     | Version:  v1812                                 |
|   \\  /    A nd           | Web:      www.OpenFOAM.com                      |
|    \\/     M anipulation  |                                                 |
\*---------------------------------------------------------------------------*/
FoamFile
{
    version     2.0;
    format      ascii;
    class       surfaceScalarField;
    location    "1.2";
    object      phi;
}
// * * * * * * * * * * * * * * * * * * * * * * * * * * * * * * * * * * * * * //

dimensions      [1 0 -1 0 0 0 0];
oriented        oriented;


internalField   nonuniform List<scalar> 
40240
(
-0.000240628
-0.000102153
-0.00032584
-0.000258262
-0.000587282
-8.03292e-05
-0.000831577
-0.000100316
-0.00118785
1.69919e-05
-0.00146504
-6.19125e-05
-0.00187211
6.90378e-05
-0.00219175
-1.70785e-05
-0.00263448
0.000108002
-0.00301514
4.84067e-05
-0.00349645
0.000151109
-0.00387764
5.97339e-05
-0.00436228
0.000165472
-0.00477988
0.000100237
-0.00528772
0.000191523
-0.00571673
0.000114861
-0.0062237
0.000195296
-0.00665699
0.000124896
-0.00717474
0.000212378
-0.00761425
0.000132767
-0.00810358
0.000185971
-0.00853562
0.000128987
-0.0090424
0.000205349
-0.0094899
0.00014744
-0.0100074
0.0002188
-0.0104639
0.000160454
-0.0110289
0.000269897
-0.0114827
0.000162828
-0.0120221
0.000251235
-0.0124771
0.000172084
-0.013054
0.000297793
-0.0135311
0.000201343
-0.0141603
0.000358931
-0.0146891
0.000264595
-0.0153618
0.000416211
-0.0159461
0.000337441
-0.0166888
0.000499367
-0.017312
0.000388368
-0.0180998
0.00054841
-0.0187643
0.000437762
-0.0195631
0.000568991
-0.0203049
0.000509473
-0.021086
0.000552973
-0.0218187
0.00051257
-0.022493
0.000455129
-0.0230457
0.000338075
-0.0234583
0.000201286
-0.0237358
6.83725e-05
-0.0238302
-0.000110418
-0.0238476
-0.000183742
-0.0237662
-0.000277671
-0.0235915
-0.000365733
-0.0234408
-0.000334993
-0.0231781
-0.000440912
-0.0229538
-0.000396818
-0.0226149
-0.000507717
-0.0222728
-0.000513327
-0.0218091
-0.000632227
-0.0213561
-0.000609176
-0.0209453
-0.000570689
-0.0205447
-0.000560475
-0.0201354
-0.000567738
-0.0197453
-0.000531957
-0.0192657
-0.000625461
-0.0188005
-0.000617291
-0.0182395
-0.000711179
-0.0176751
-0.000717109
-0.0171244
-0.000685106
-0.0165396
-0.000725422
-0.0160585
-0.000625601
-0.0155039
-0.000675902
-0.0150394
-0.000584416
-0.0145594
-0.00060506
-0.0142227
-0.000451304
-0.0138768
-0.000457601
-0.0135733
-0.000412342
-0.0132086
-0.000468402
-0.0128655
-0.000443992
-0.0124502
-0.000516273
-0.0121117
-0.000435027
-0.0118277
-0.000378458
-0.0115801
-0.000341413
-0.0114643
-0.000212269
-0.0114152
-0.000139367
-0.011666
0.000164744
-0.0118607
0.000115386
-0.0123663
0.000421784
-0.0128128
0.000363925
-0.0136303
0.000739219
-0.0143865
0.000674029
-0.0156315
0.00118994
-0.0167669
0.00106639
-0.0184423
0.00161411
-0.019964
0.00145189
-0.0219565
0.00193643
-0.0237918
0.00177607
-0.0259445
0.00209973
-0.0280365
0.00204501
-0.0302608
0.00216676
-0.0325032
0.00218261
-0.0344858
0.00192859
-0.0363406
0.00180322
-0.037685
0.00130372
-0.0385399
0.000814847
-0.0388501
0.000271405
-0.0386962
-0.000190373
-0.0381535
-0.000580591
-0.0371758
-0.00101825
-0.036227
-0.000974825
-0.0349821
-0.00127948
-0.0338822
-0.00112042
-0.0324045
-0.00150752
-0.0308981
-0.00153353
-0.0291211
-0.00180409
-0.0271007
-0.00204482
-0.0255099
-0.00161199
-0.0242829
-0.00125301
-0.0229712
-0.0013379
-0.0213036
-0.00169089
-0.0195454
-0.00178345
-0.0176019
-0.00197138
-0.0160307
-0.00159969
-0.0142993
-0.00175584
-0.0129019
-0.00142053
-0.0113767
-0.00154467
-0.00998569
-0.00141044
-0.00853624
-0.00146625
-0.00721223
-0.00133868
-0.00576436
-0.00146241
-0.00452794
-0.00124933
-0.00345314
-0.00108812
-0.00252451
-0.000940027
-0.00149182
-0.00104524
-0.000682593
-0.00082114
-0.000141199
-0.000553204
0.000281829
-0.000435323
0.000465835
-0.000196128
0.000652508
-0.000200065
0.000770158
-0.0001288
0.000843818
-8.51587e-05
0.000910864
-8.02176e-05
0.000924983
-3.02323e-05
0.000923439
-1.66312e-05
0.000905755
-2.3151e-06
0.000848753
3.6088e-05
0.000794243
3.29067e-05
0.000749236
2.2529e-05
0.000711051
1.50518e-05
0.000649925
3.73247e-05
0.000522806
0.000102975
0.000391503
0.00010815
0.00025998
0.000108419
0.000171122
6.45439e-05
7.6704e-05
6.90807e-05
3.62859e-05
1.3606e-05
-4.46545e-05
5.23436e-05
-0.000137701
6.21032e-05
-0.000365871
0.000194885
-0.000723369
0.000321739
-0.00114119
0.00038166
-0.00160638
0.000426515
-0.00194699
0.000299118
-0.00236683
0.000376166
-0.00277561
0.000362029
-0.00328382
0.000459368
-0.00374717
0.000412783
-0.00436801
0.000569649
-0.00492063
0.000501134
-0.00561502
0.000642242
-0.00622897
0.000561277
-0.00692939
0.000648259
-0.00762664
0.000644055
-0.00837983
0.000699199
-0.00917518
0.000741476
-0.00999562
0.000765874
-0.0108481
0.00079594
-0.0116122
0.000705158
-0.0123504
0.000673124
-0.012818
0.000396979
-0.0130932
0.000202937
-0.0131182
-4.65378e-05
-0.0130175
-0.000174207
-0.0124868
-0.000601723
-0.0118047
-0.000752388
-0.010855
-0.00101948
-0.00977184
-0.00115453
-0.00859199
-0.00124452
-0.0072373
-0.00141636
-0.00598576
-0.00130742
-0.0048873
-0.00115063
-0.00396307
-0.000972309
-0.00275808
-0.00126389
-0.00170202
-0.00111011
-0.000906946
-0.000859999
-0.000356078
-0.000614532
-5.97424e-05
-0.000358576
0.000334477
-0.000460432
0.000721462
-0.000454551
0.00110046
-0.000447002
0.00143997
-0.000410354
0.00182204
-0.000451183
0.00215812
-0.000405724
0.00253662
-0.000447073
0.00285767
-0.000386109
0.00315861
-0.000363351
0.00340965
-0.000309509
0.00355979
-0.000204561
0.00371774
-0.000207626
0.00371782
-4.47128e-05
0.00369436
-1.68088e-05
0.00364674
1.14315e-05
0.00355897
5.44789e-05
0.00341178
0.000113799
0.00323537
0.000141489
0.00299163
0.000207894
0.00274209
0.000212786
0.00248186
0.000223469
0.00221013
0.00023353
0.00191736
0.000254909
0.00162085
0.00025998
0.00129118
0.000294442
0.00108943
0.000169425
0.000782087
0.000275479
0.000641821
0.000107478
0.000349404
0.000260067
0.000161912
0.000154443
-0.000285535
0.000417298
-0.00060907
0.000297593
-0.00118816
0.000553468
-0.00200943
0.000798223
-0.00261204
0.000579804
-0.00324905
0.000613598
-0.00380895
0.000537952
-0.00452121
0.000694839
-0.00516253
0.000629213
-0.00569647
0.000526681
-0.00613307
0.000433879
-0.00669775
0.000562723
-0.00724299
0.000539887
-0.00773149
0.000484709
-0.00813566
0.000399877
-0.00856157
0.000422898
-0.00906723
0.000504465
-0.00963354
0.000566602
-0.0101505
0.000518189
-0.010668
0.000518491
-0.0112472
0.000581855
-0.0117845
0.000540865
-0.0122584
0.000477464
-0.0126079
0.000352516
-0.0128517
0.000247481
-0.0129663
0.000120685
-0.0129928
3.58509e-05
-0.0129317
-4.80596e-05
-0.0127686
-0.000146797
-0.0125211
-0.000228246
-0.0122947
-0.000206066
-0.0120114
-0.000262723
-0.0117407
-0.000248857
-0.0113855
-0.000333692
-0.0109786
-0.000384807
-0.0105582
-0.000397246
-0.0101337
-0.000401149
-0.00969491
-0.0004149
-0.00918424
-0.000487736
-0.00858927
-0.000572632
-0.00792368
-0.000641922
-0.0072528
-0.000645797
-0.0065112
-0.000715292
-0.00595341
-0.000532321
-0.00540519
-0.000524248
-0.00488632
-0.000495795
-0.00424232
-0.000617855
-0.00370526
-0.000523276
-0.00321854
-0.000469869
-0.00282582
-0.000375667
-0.00224443
-0.000562479
-0.00175616
-0.000467494
-0.00133246
-0.000404611
-0.000918732
-0.000392674
-0.000542743
-0.000355208
-0.000253441
-0.000267357
-5.28407e-05
-0.000178603
0.000115635
-0.000152655
0.000204616
-7.1581e-05
0.000288791
-7.073e-05
0.000350875
-5.49589e-05
0.00040219
-4.362e-05
0.000449165
-4.20064e-05
0.000484232
-3.21535e-05
0.000514277
-2.77112e-05
0.000529225
-1.32564e-05
0.000544936
-1.45782e-05
0.000549146
-3.4295e-06
0.000542473
6.97567e-06
0.000532503
9.69553e-06
0.000497995
3.36875e-05
0.000462195
3.35289e-05
0.000402487
5.62968e-05
0.000319969
7.76792e-05
0.000230125
8.43686e-05
4.80526e-05
0.000174636
-0.000162814
0.000201751
-0.000512858
0.000341601
-0.000940884
0.000418377
-0.00131595
0.000364427
-0.00172606
0.000393981
-0.00201587
0.000271261
-0.00236894
0.000337635
-0.00269526
0.000308937
-0.00303492
0.000321566
-0.00334239
0.000288101
-0.00367197
0.000308427
-0.00399293
0.000299304
-0.00426192
0.000245624
-0.00446614
0.000178795
-0.00464669
0.000153639
-0.00482018
0.000146046
-0.00495457
0.000105539
-0.00504891
6.41928e-05
-0.00505709
-2.2233e-05
-0.00509194
2.4565e-06
-0.00521503
8.86544e-05
-0.00529412
4.42353e-05
-0.00543496
0.000106167
-0.00554914
7.71676e-05
-0.00567519
8.8157e-05
-0.00574974
3.73696e-05
-0.00586173
7.82111e-05
-0.00598234
8.36764e-05
-0.00616399
0.000145967
-0.00629403
9.6556e-05
-0.00646814
0.00014115
-0.00661859
0.000114884
-0.00687005
0.000215104
-0.00707669
0.000172804
-0.00738222
0.000270621
-0.00764573
0.000229493
-0.00798918
0.000307995
-0.00828981
0.000265831
-0.0086504
0.000323865
-0.00897716
0.000293085
-0.00933094
0.000316323
-0.00967229
0.000306937
-0.00999678
0.000289478
-0.010285
0.000253311
-0.010538
0.000218421
-0.0107533
0.000181278
-0.0108938
0.000107574
-0.0109701
4.44996e-05
-0.0109763
-2.4147e-05
-0.0109102
-9.59779e-05
-0.0107728
-0.000166155
-0.0106057
-0.000195402
-0.0104477
-0.000186328
-0.010361
-0.000113573
-0.0102912
-9.62293e-05
-0.0102162
-0.000100953
-0.01015
-9.10665e-05
-0.00993431
-0.000240197
-0.00963979
-0.000317351
-0.00921334
-0.000449442
-0.00875295
-0.000480822
-0.00834288
-0.000430023
-0.0078855
-0.000475604
-0.00733988
-0.000561808
-0.00677938
-0.000574822
-0.00632901
-0.000462591
-0.00582706
-0.00051273
-0.00542483
-0.000411383
-0.00495733
-0.000476071
-0.00454479
-0.00041983
-0.00411644
-0.000434745
-0.00374666
-0.000374936
-0.00333264
-0.000415432
-0.00306922
-0.00026193
-0.00272319
-0.000345057
-0.00244382
-0.000274948
-0.00216311
-0.000273835
-0.00191794
-0.000237799
-0.00169355
-0.000216523
-0.00148083
-0.000204311
-0.00129302
-0.000178802
-0.00111638
-0.000167455
-0.000964129
-0.000143033
-0.000825416
-0.000129608
-0.000708774
-0.000107275
-0.000601274
-9.79082e-05
-0.000511152
-8.01082e-05
-0.000424645
-7.59166e-05
-0.000347362
-6.61848e-05
-0.000276014
-5.94837e-05
-0.000212419
-5.13475e-05
-0.000152835
-4.71142e-05
-9.86932e-05
-4.17029e-05
-5.08605e-05
-3.61377e-05
-1.22337e-05
-2.8177e-05
1.17176e-05
-1.36896e-05
2.13579e-05
1.97447e-06
2.69566e-05
7.18234e-06
3.10217e-05
9.88373e-06
3.2316e-05
1.41611e-05
3.08877e-05
1.79617e-05
2.24926e-05
2.59179e-05
6.3856e-06
3.48314e-05
-1.93383e-05
4.57064e-05
-6.54771e-05
6.50503e-05
-0.000122187
7.26837e-05
-0.000182785
7.48506e-05
-0.000255536
8.60509e-05
-0.000355323
0.000112016
-0.000461083
0.000117773
-0.000570523
0.000122096
-0.000676738
0.000119918
-0.000778516
0.000117116
-0.000868141
0.000105848
-0.000948093
9.7533e-05
-0.00102473
9.4489e-05
-0.00112404
0.000117364
-0.00121926
0.000112762
-0.00132541
0.000122032
-0.00143116
0.000121418
-0.00153715
0.000118438
-0.00164741
0.00012285
-0.00171441
7.70883e-05
-0.00183101
0.000121192
-0.00190792
9.1493e-05
-0.00203733
0.00014005
-0.00212746
9.43013e-05
-0.00223114
0.000107049
-0.00230864
7.98009e-05
-0.00238192
7.47309e-05
-0.00244189
6.04762e-05
-0.00249332
5.06311e-05
-0.00253581
4.04733e-05
-0.00257043
3.12514e-05
-0.00259805
2.2933e-05
-0.0026229
1.89471e-05
-0.00264385
1.37711e-05
-0.00265881
6.92512e-06
-0.0026688
6.3709e-07
-0.00267416
-5.23082e-06
-0.00267607
-9.91652e-06
-0.00267557
-1.34281e-05
-0.00267212
-1.75931e-05
-0.00266433
-2.31627e-05
-0.00264869
-3.23086e-05
-0.00262506
-4.16413e-05
-0.00260185
-4.22864e-05
-0.00257475
-4.69194e-05
-0.0025563
-3.89864e-05
-0.00252917
-4.83225e-05
-0.00251052
-4.01448e-05
-0.0024834
-5.09175e-05
-0.00245525
-6.2893e-05
-0.00243833
-4.12799e-05
-0.0024086
-5.14723e-05
-0.00237355
-5.63572e-05
-0.00233389
-6.09712e-05
-0.00229292
-6.28017e-05
-0.00225149
-6.35426e-05
-0.00221473
-5.87615e-05
-0.00218583
-5.11045e-05
-0.00216508
-4.31424e-05
-0.00215307
-3.46745e-05
-0.00213939
-3.64162e-05
-0.00212978
-3.24443e-05
-0.0021197
-3.29714e-05
-0.00210883
-3.3549e-05
-0.00210159
-2.97481e-05
-0.00209847
-2.53946e-05
-0.00209645
-2.38888e-05
-0.00209143
-2.61794e-05
-0.00208261
-2.93988e-05
-0.00207296
-2.96039e-05
-0.00206502
-2.7281e-05
-0.00206039
-2.33613e-05
-0.00205952
-1.89265e-05
-0.00206215
-1.49129e-05
-0.0020686
-1.10365e-05
-0.00207813
-7.95475e-06
-0.00209056
-5.0514e-06
-0.00210541
-2.51619e-06
-0.00212237
-2.71319e-07
-0.00214067
1.19031e-06
-0.00215936
1.97928e-06
-0.00217792
2.1135e-06
-0.00219618
2.50008e-06
-0.00221281
1.64626e-06
-0.00222792
1.16011e-06
-0.0022406
9.07524e-08
-0.00225101
-5.01741e-07
-0.00225856
-1.30356e-06
-0.002264
-1.84922e-06
-0.00226747
-2.29157e-06
-0.00227043
-2.26612e-06
-0.00227222
-2.89765e-06
-0.00227289
-3.15357e-06
-0.00227272
-2.95837e-06
-2.97098e-06
-0.000323371
-0.00012072
-0.000961012
3.14231e-05
-0.00139895
1.56926e-05
-0.00218863
0.000351363
-0.00287769
0.000353243
-0.00376234
0.000487005
-0.00447887
0.00044791
-0.00542911
0.000598551
-0.00617
0.000516206
-0.00716195
0.000709533
-0.00795138
0.000613301
-0.00891202
0.000697323
-0.00971004
0.000643837
-0.010685
0.000757307
-0.0114874
0.000677646
-0.0124392
0.000751234
-0.0132299
0.000673865
-0.0141553
0.00074073
-0.0149486
0.000698644
-0.0158336
0.000712147
-0.016584
0.000631751
-0.0174496
0.000692621
-0.0181815
0.000635594
-0.019045
0.00070977
-0.0197977
0.000675009
-0.0207099
0.000775525
-0.0214467
0.000715892
-0.0223648
0.00078722
-0.0231026
0.000703312
-0.0240166
0.000802334
-0.0247978
0.00080233
-0.0257444
0.0008679
-0.0264994
0.000850666
-0.0274419
0.0009403
-0.0282712
0.000985261
-0.0292678
0.00108309
-0.0301246
0.00111732
-0.031098
0.00112667
-0.0319237
0.00113991
-0.03289
0.00116856
-0.0337232
0.00117034
-0.0346125
0.00117054
-0.0353932
0.00110756
-0.036128
0.00102507
-0.0368229
0.000931192
-0.0373418
0.000641
-0.037849
0.000497173
-0.038145
0.000157573
-0.0384023
-5.72976e-05
-0.0384696
-0.000316613
-0.0384474
-0.000495135
-0.0383574
-0.000645527
-0.0381028
-0.000773631
-0.037883
-0.000836071
-0.037486
-0.000965125
-0.0371147
-0.00105378
-0.0365161
-0.00127937
-0.0359065
-0.0014067
-0.0352336
-0.00145071
-0.0345185
-0.00145147
-0.0338297
-0.00139775
-0.0330759
-0.00147762
-0.0322625
-0.00148701
-0.0314545
-0.00159131
-0.0305912
-0.00163241
-0.0296596
-0.00178582
-0.0287911
-0.00173962
-0.0278162
-0.00179901
-0.0270355
-0.00164326
-0.0261123
-0.0016803
-0.0254023
-0.00151312
-0.0245772
-0.00154501
-0.0239663
-0.00133177
-0.0232327
-0.00130403
-0.0227562
-0.00104253
-0.0221956
-0.00107717
-0.0218692
-0.000902917
-0.0215177
-0.000897243
-0.0213158
-0.000818987
-0.0211431
-0.000705963
-0.0210415
-0.000575953
-0.0211974
-0.000283189
-0.0213536
-0.000153018
-0.021887
0.000303639
-0.0222821
0.000473277
-0.0232134
0.000972551
-0.0239076
0.00103308
-0.0252201
0.00159843
-0.026306
0.00174235
-0.0281279
0.00239713
-0.0294983
0.00250721
-0.0316885
0.00318959
-0.0334097
0.00327821
-0.0357856
0.00375699
-0.037684
0.00378154
-0.0400754
0.00411795
-0.0420014
0.00397495
-0.0440704
0.00408354
-0.0458873
0.00391832
-0.0473765
0.00358511
-0.0488277
0.00333959
-0.0495667
0.0024545
-0.0503445
0.00204239
-0.0507125
0.00114444
-0.0508288
0.00035005
-0.0507368
-0.000324009
-0.0499984
-0.00135585
-0.0493271
-0.00172733
-0.047714
-0.00260015
-0.0461874
-0.0028409
-0.0443229
-0.00301306
-0.0422562
-0.00360053
-0.0401338
-0.00367708
-0.0374162
-0.00454387
-0.0350915
-0.0043878
-0.0324922
-0.00423622
-0.0304896
-0.00327759
-0.0286893
-0.00315932
-0.0267031
-0.00370188
-0.024371
-0.00414024
-0.0221012
-0.00427123
-0.0198627
-0.00386382
-0.0177694
-0.0038824
-0.0158223
-0.00338865
-0.014054
-0.00333788
-0.0119239
-0.00355956
-0.0102902
-0.0031189
-0.008382
-0.00326355
-0.00666769
-0.00319353
-0.00490647
-0.00302495
-0.00343355
-0.00257466
-0.00220316
-0.00218361
-0.00118316
-0.00207858
-0.000331823
-0.00168806
0.000470729
-0.00137237
0.00114463
-0.00112435
0.00176448
-0.000831744
0.00224904
-0.000696549
0.00257573
-0.000466086
0.00286695
-0.000388066
0.00300712
-0.000233274
0.00311381
-0.000153944
0.00311151
-3.30969e-05
0.00303532
5.34814e-05
0.00292744
0.000123062
0.00276186
0.000176454
0.00261988
0.000142012
0.00244533
0.000166255
0.00223389
0.000224977
0.00194951
0.00036134
0.00157255
0.000461346
0.00120495
0.000451798
0.000856049
0.00038879
0.000595286
0.000304304
0.00032007
0.000263582
0.000178355
0.000166519
-3.5264e-05
0.000246057
-0.000263556
0.00039087
-0.000607989
0.00063132
-0.00106035
0.000797691
-0.00153364
0.000860284
-0.00228456
0.0010098
-0.00278247
0.000829486
-0.00345376
0.000987087
-0.00409486
0.00105221
-0.00484367
0.00111078
-0.00561434
0.00128871
-0.00653311
0.00136934
-0.00736002
0.00141763
-0.00829668
0.0014464
-0.00911306
0.00141354
-0.0100572
0.00153226
-0.0108693
0.0014557
-0.0117288
0.00154915
-0.0124437
0.00142609
-0.013101
0.00139634
-0.0136365
0.00118264
-0.0139351
0.000907317
-0.014202
0.000594557
-0.0143217
0.000250616
-0.014409
-3.15444e-05
-0.0142794
-0.000375133
-0.014173
-0.000775662
-0.0135468
-0.00145017
-0.0128075
-0.00182723
-0.0117105
-0.00231711
-0.010138
-0.0028858
-0.00850665
-0.00310762
-0.00679343
-0.00307769
-0.00529486
-0.00270736
-0.00366366
-0.00266032
-0.00252566
-0.00245592
-0.00140382
-0.00226596
-0.000497765
-0.00184365
0.000125864
-0.00130405
0.00120824
-0.00149831
0.00218768
-0.00150607
0.0033188
-0.00165415
0.00423151
-0.00142992
0.00532513
-0.00157402
0.00621414
-0.00140884
0.00717548
-0.00143749
0.00807686
-0.00141554
0.00887029
-0.00124548
0.00963219
-0.00118704
0.0101727
-0.000908243
0.0106956
-0.000781789
0.0109244
-0.00048624
0.0111304
-0.00029513
0.0111479
-7.40062e-05
0.011034
8.80916e-05
0.010826
0.000229117
0.010534
0.000373654
0.0101288
0.000511385
0.00958691
0.000714548
0.00896655
0.000797598
0.008261
0.00089316
0.00756644
0.000890905
0.00674844
0.00103518
0.00597182
0.00100163
0.0051764
0.00105402
0.0042153
0.00109744
0.00343132
0.00102729
0.00274308
0.000763034
0.00224539
0.000725579
0.00118396
0.00118741
0.000412026
0.00116295
-0.000436289
0.00111384
-0.000900236
0.000994048
-0.00184224
0.00171888
-0.0030616
0.00177427
-0.00395783
0.00148758
-0.00478121
0.00134138
-0.00565444
0.00156029
-0.00658954
0.00155607
-0.00736837
0.00129205
-0.0079928
0.00105233
-0.00873297
0.00128606
-0.00966819
0.00146701
-0.0103955
0.00120889
-0.0112266
0.00122757
-0.0118792
0.00107422
-0.0125741
0.00119895
-0.0131299
0.00112116
-0.013641
0.00102883
-0.0141232
0.00100082
-0.0145091
0.000972986
-0.0148765
0.000912251
-0.0150568
0.000661006
-0.0152542
0.000553781
-0.0153441
0.000341931
-0.0154115
0.000194451
-0.0153843
1.74231e-05
-0.0153232
-9.61919e-05
-0.0151507
-0.000303738
-0.0149517
-0.000407795
-0.0146552
-0.000481152
-0.0142908
-0.000608148
-0.0139092
-0.000612008
-0.013439
-0.000780836
-0.0129731
-0.000827541
-0.0124285
-0.000919581
-0.011855
-0.000953262
-0.0113157
-0.000928939
-0.0107536
-0.00102976
-0.010113
-0.00118801
-0.00942195
-0.0013044
-0.00853113
-0.00151388
-0.00774787
-0.00147398
-0.00690835
-0.00134606
-0.00630919
-0.00109828
-0.00556766
-0.00121575
-0.00489748
-0.00126703
-0.00411581
-0.00128738
-0.00354057
-0.00102875
-0.00270754
-0.00118745
-0.00214897
-0.00110198
-0.00166873
-0.000928261
-0.00122616
-0.000827985
-0.000779368
-0.000819288
-0.000374411
-0.000739099
-5.01428e-05
-0.000570523
0.000326095
-0.00053684
0.000648063
-0.000453202
0.000917071
-0.000326503
0.0011596
-0.000301141
0.0013418
-0.000227004
0.00152177
-0.000215619
0.00165008
-0.00016467
0.0017735
-0.000152223
0.00184969
-0.000101231
0.00191671
-7.79929e-05
0.0019411
-3.79141e-05
0.00194261
-4.30296e-06
0.00192183
2.78066e-05
0.00185853
7.23654e-05
0.00176358
0.00012696
0.00160461
0.000189744
0.00142092
0.000236346
0.00116042
0.000334047
0.000839949
0.000401408
0.000497956
0.000511171
8.54112e-05
0.000607873
-0.000330637
0.000749902
-0.000815033
0.000893291
-0.00128288
0.000821568
-0.00177799
0.000875803
-0.00234484
0.000826907
-0.00270514
0.000683794
-0.00319298
0.000780706
-0.00360186
0.000710368
-0.00399926
0.000665133
-0.00436965
0.000656884
-0.00470592
0.000613975
-0.00499203
0.000507588
-0.00524811
0.000412861
-0.00550597
0.000384035
-0.0057771
0.000391019
-0.00598747
0.000287857
-0.00618966
0.000235427
-0.00638803
0.000144351
-0.00665903
0.000240362
-0.00684644
0.000241937
-0.00707411
0.000237354
-0.00728877
0.000285699
-0.00755185
0.000304377
-0.00777216
0.000268844
-0.00799195
0.000219381
-0.00817801
0.000227275
-0.00847607
0.000349916
-0.00873976
0.000370909
-0.00911442
0.000435612
-0.00939637
0.000396036
-0.00977036
0.000455263
-0.010073
0.00048305
-0.0104912
0.000555575
-0.0108119
0.000557383
-0.0112152
0.000597824
-0.0115269
0.000586019
-0.0119007
0.000604986
-0.012199
0.000587613
-0.0125291
0.000583687
-0.0127977
0.000552428
-0.0130509
0.000524309
-0.0132843
0.000487909
-0.0134484
0.000383042
-0.0136381
0.000373363
-0.0137453
0.000254606
-0.0138489
0.000178167
-0.0139013
6.54244e-05
-0.013908
-4.76515e-05
-0.0138823
-0.000151408
-0.0137649
-0.00031247
-0.0136298
-0.000358957
-0.0134192
-0.000423687
-0.013165
-0.000395044
-0.0128896
-0.000397866
-0.0125874
-0.00042955
-0.012263
-0.000441096
-0.0118521
-0.000675828
-0.0113815
-0.000811842
-0.0108681
-0.000988935
-0.0103627
-0.00101198
-0.00996074
-0.00085306
-0.00943626
-0.00101909
-0.00871043
-0.0013041
-0.00805949
-0.00124029
-0.00739292
-0.00114288
-0.00680238
-0.00111478
-0.00621208
-0.0010118
-0.00571706
-0.000981301
-0.00506175
-0.00108334
-0.00460766
-0.00089316
-0.00397808
-0.00100584
-0.00354711
-0.000849041
-0.00299245
-0.00081879
-0.00269544
-0.000642084
-0.00239125
-0.00057585
-0.00212499
-0.000533577
-0.00185571
-0.000500233
-0.00160829
-0.000456275
-0.00138951
-0.0004149
-0.00117973
-0.000379693
-0.000998212
-0.000339805
-0.00082938
-0.000302689
-0.000688405
-0.000261703
-0.000557581
-0.000228679
-0.000449284
-0.000197007
-0.00034835
-0.000171012
-0.00025825
-0.000155701
-0.000175352
-0.000138181
-0.000101803
-0.000121336
-3.48947e-05
-0.000106037
2.80185e-05
-9.75562e-05
8.35866e-05
-8.48365e-05
0.000136105
-7.64253e-05
0.000181757
-6.14663e-05
0.000221945
-4.28246e-05
0.000257701
-2.25131e-05
0.000285997
-8.94763e-06
0.000297461
1.17568e-05
0.000304722
2.17305e-05
0.000293555
4.55355e-05
0.00026806
6.96561e-05
0.000222244
0.000100369
0.000166709
0.000119578
0.00010801
0.000141102
4.49402e-05
0.000152122
-1.4814e-05
0.000149115
-9.82103e-05
0.000182735
-0.000202537
0.00022855
-0.000312078
0.000239396
-0.000431356
0.000254489
-0.000541753
0.000244614
-0.000655835
0.000245943
-0.000757751
0.000222497
-0.000839025
0.000197139
-0.000941585
0.000215116
-0.00104516
0.00023909
-0.00115304
0.000238617
-0.00126375
0.000253172
-0.00137946
0.000254394
-0.00149823
0.000251842
-0.00159909
0.000239212
-0.00171843
0.000209939
-0.00183061
0.000244373
-0.00200394
0.000272155
-0.00209198
0.0002361
-0.00221905
0.000228539
-0.00229608
0.000187542
-0.0023848
0.000171267
-0.00244511
0.000136211
-0.00250177
0.00011787
-0.00254827
9.64455e-05
-0.00258772
7.82066e-05
-0.0026299
7.05033e-05
-0.00266561
5.41782e-05
-0.00270059
4.86859e-05
-0.00272577
3.15694e-05
-0.00274386
1.68473e-05
-0.00275247
-5.88865e-07
-0.00275333
-1.51529e-05
-0.00274791
-2.74652e-05
-0.00273716
-3.74697e-05
-0.00272372
-4.55033e-05
-0.00270692
-5.57349e-05
-0.00268961
-6.67088e-05
-0.00266847
-8.08337e-05
-0.00264388
-8.56619e-05
-0.00262059
-8.98719e-05
-0.00258857
-9.13824e-05
-0.00256606
-9.23311e-05
-0.00253111
-9.66517e-05
-0.00250889
-9.31023e-05
-0.00246941
-0.000110778
-0.0024295
-0.000102453
-0.002395
-0.000107455
-0.00235752
-0.000115774
-0.00231641
-0.000123675
-0.00227523
-0.000125469
-0.00222951
-0.000131198
-0.00219321
-0.000116805
-0.00215879
-0.000107765
-0.0021355
-8.87356e-05
-0.00211611
-7.68197e-05
-0.00209997
-7.52882e-05
-0.00208667
-6.85433e-05
-0.00207241
-7.00579e-05
-0.00206003
-6.85908e-05
-0.00205135
-6.09658e-05
-0.00204594
-5.30514e-05
-0.00204202
-4.96372e-05
-0.00203494
-5.44728e-05
-0.00202499
-5.99249e-05
-0.00201495
-5.96022e-05
-0.00200517
-5.6546e-05
-0.00200046
-4.6979e-05
-0.0019989
-3.88989e-05
-0.00200101
-3.0587e-05
-0.00200675
-2.29189e-05
-0.00201692
-1.53256e-05
-0.0020284
-1.11246e-05
-0.00204438
-4.08906e-06
-0.00206037
-1.74027e-06
-0.00207887
2.32593e-06
-0.00209753
3.46641e-06
-0.0021165
4.35706e-06
-0.00213511
5.0386e-06
-0.00215168
2.96735e-06
-0.00216722
2.49067e-06
-0.00217956
-3.45559e-07
-0.00219102
-1.78933e-07
-0.00219823
-3.52079e-06
-0.00220429
-3.29978e-06
-0.00220858
-4.28674e-06
-0.00221144
-4.84978e-06
-0.00221298
-6.33268e-06
-0.00221449
-5.73452e-06
-0.00221509
-5.38584e-06
-5.83867e-06
-0.000609546
0.000144302
-0.00120036
0.000281202
-0.00229823
0.000758565
-0.00304732
0.000762108
-0.00419911
0.00116703
-0.00523678
0.00117433
-0.00644355
0.00132573
-0.0074802
0.00129487
-0.00873972
0.00144255
-0.00974848
0.00138857
-0.0109653
0.00150316
-0.0119412
0.00135059
-0.0131107
0.00149337
-0.0141187
0.00144787
-0.0152363
0.00147769
-0.016189
0.00138918
-0.0172627
0.0014343
-0.0181905
0.00135897
-0.0192166
0.00141658
-0.0200809
0.00127167
-0.021071
0.00131708
-0.0219118
0.00122735
-0.0228615
0.00128381
-0.0236696
0.00121965
-0.024621
0.00132716
-0.0254538
0.00131759
-0.0264561
0.0014212
-0.0272616
0.00130352
-0.0282457
0.00140093
-0.0290846
0.00136458
-0.0300993
0.00153202
-0.0309373
0.00144361
-0.0319255
0.00155785
-0.0327179
0.00147663
-0.0336916
0.00169711
-0.0345385
0.00167733
-0.035483
0.00182018
-0.0362879
0.00168733
-0.0371721
0.0018026
-0.0379328
0.00168961
-0.038753
0.00175883
-0.0394442
0.00163324
-0.0401135
0.00154704
-0.0406845
0.00137685
-0.0411339
0.00116181
-0.0416187
0.000910558
-0.041953
0.000620227
-0.0423118
0.000311536
-0.0425364
-4.15882e-05
-0.0427178
-0.000335793
-0.0427685
-0.000640039
-0.0427091
-0.000895873
-0.042598
-0.0010721
-0.0422874
-0.00132286
-0.0419636
-0.00146125
-0.0414763
-0.00170673
-0.0409807
-0.00193884
-0.0403193
-0.00224987
-0.0395514
-0.00236614
-0.0387753
-0.00236685
-0.0379185
-0.00244818
-0.0370604
-0.00248034
-0.0360707
-0.00261925
-0.0351616
-0.00265261
-0.0340944
-0.00284774
-0.0331269
-0.00290235
-0.0320567
-0.00296481
-0.0311191
-0.00287708
-0.030101
-0.00280143
-0.0292749
-0.00263442
-0.0283453
-0.00257427
-0.0275954
-0.00241212
-0.0267611
-0.0022943
-0.0261458
-0.00203713
-0.0253878
-0.0019059
-0.0249672
-0.00160605
-0.0244821
-0.00149139
-0.0243246
-0.00115044
-0.0242665
-0.000981942
-0.0242919
-0.000778885
-0.0246358
-0.000333721
-0.0248407
-0.000171898
-0.0256519
0.000563552
-0.0261481
0.000713676
-0.0272526
0.00148702
-0.028015
0.00165864
-0.029487
0.00242736
-0.0305742
0.00261333
-0.0323815
0.00347735
-0.0337624
0.00369018
-0.035819
0.00450998
-0.037409
0.00470617
-0.0394908
0.00531559
-0.0411821
0.00538149
-0.0432853
0.00577642
-0.0448637
0.00569969
-0.0467286
0.00574813
-0.0481042
0.00544893
-0.0493851
0.00516593
-0.0505334
0.00466343
-0.0511326
0.0038862
-0.0518323
0.00313428
-0.0520751
0.0022459
-0.052254
0.0012827
-0.052289
0.000348031
-0.052075
-0.000575082
-0.0519234
-0.00152917
-0.0508101
-0.00285392
-0.0497672
-0.00369823
-0.0479927
-0.00466849
-0.0457234
-0.00530445
-0.0435341
-0.00583061
-0.0405572
-0.0066627
-0.037943
-0.00717802
-0.0348439
-0.00748859
-0.0324631
-0.00663837
-0.0302235
-0.00553009
-0.0282436
-0.00515504
-0.0259175
-0.00605465
-0.0236092
-0.00647369
-0.0209685
-0.00694037
-0.0188567
-0.00600013
-0.0165718
-0.0061901
-0.0146015
-0.00537784
-0.0125385
-0.00542141
-0.0106284
-0.00548839
-0.00876517
-0.00499872
-0.00713437
-0.00491073
-0.00521973
-0.00512269
-0.00379206
-0.00446699
-0.00230149
-0.0040795
-0.00109063
-0.00340766
0.000113803
-0.00329664
0.00109378
-0.00268127
0.00205941
-0.00235154
0.00296065
-0.00204066
0.00377905
-0.00166375
0.00442164
-0.00135321
0.00498564
-0.00104147
0.00535246
-0.000767904
0.00566962
-0.000567242
0.00578327
-0.000279768
0.00581399
-8.43695e-05
0.00575109
9.56583e-05
0.00553519
0.000317851
0.00531828
0.000371114
0.00498239
0.000455635
0.0046958
0.000429766
0.00437703
0.000518832
0.00395731
0.000756651
0.00340068
0.000995154
0.00280114
0.00102603
0.00222062
0.00094377
0.00167022
0.000829591
0.00124997
0.000656269
0.000843758
0.000544703
0.000639244
0.00041956
0.000347202
0.000649121
-1.82192e-05
0.000958783
-0.000494497
0.00123993
-0.00111909
0.0014449
-0.00166711
0.00152169
-0.00228408
0.00140583
-0.00294761
0.0015983
-0.00372141
0.00177945
-0.00444507
0.00178358
-0.00534262
0.00213699
-0.00618504
0.00216203
-0.00721909
0.00240171
-0.00806928
0.00224663
-0.00909056
0.00238184
-0.00993752
0.0023264
-0.0109145
0.00237842
-0.0116647
0.00224352
-0.0124873
0.00219156
-0.0130537
0.00190373
-0.013566
0.00163571
-0.0138897
0.0011734
-0.0141194
0.000756152
-0.0142437
0.000311051
-0.0143029
-5.27734e-05
-0.0141387
-0.000608774
-0.0136635
-0.00133131
-0.0129092
-0.00226886
-0.0118237
-0.00299901
-0.0105001
-0.00371411
-0.00904052
-0.00441927
-0.00726397
-0.004935
-0.00568567
-0.00471706
-0.00429175
-0.00416395
-0.00297382
-0.00403146
-0.00137085
-0.00410956
2.87901e-05
-0.00371966
0.00105704
-0.00293402
0.00230982
-0.00261692
0.00375708
-0.00300642
0.00531461
-0.00312683
0.00685167
-0.00325992
0.00841841
-0.0030671
0.00980803
-0.00303182
0.0111971
-0.00286555
0.0125459
-0.00285042
0.0138071
-0.00274605
0.0149507
-0.00245459
0.0159156
-0.00221729
0.0167704
-0.00182312
0.0173942
-0.00146322
0.0178625
-0.00100279
0.0181387
-0.000621929
0.018284
-0.000258674
0.0182241
0.000113086
0.0180022
0.000420813
0.0177073
0.000631183
0.0171827
0.000999503
0.0165809
0.00127427
0.0157113
0.00163352
0.014841
0.00173
0.0137312
0.00196571
0.0126235
0.00210871
0.0112763
0.00231371
0.0101536
0.00214194
0.00906814
0.00214845
0.00734061
0.00272147
0.005749
0.00231465
0.00467609
0.0017699
0.00391003
0.0019243
0.00229938
0.00274488
0.00104662
0.00233861
9.36943e-06
0.00199256
-0.000750198
0.00243105
-0.00204921
0.00306482
-0.00327058
0.00270795
-0.00425204
0.00229748
-0.00496524
0.00225452
-0.00609174
0.00266707
-0.00712992
0.00232045
-0.00795784
0.00187826
-0.00868625
0.00200837
-0.00965373
0.00242922