/*--------------------------------*- C++ -*----------------------------------*\
| =========                 |                                                 |
| \\      /  F ield         | OpenFOAM: The Open Source CFD Toolbox           |
|  \\    /   O peration     | Version:  v1812                                 |
|   \\  /    A nd           | Web:      www.OpenFOAM.com                      |
|    \\/     M anipulation  |                                                 |
\*---------------------------------------------------------------------------*/
FoamFile
{
    version     2.0;
    format      ascii;
    class       volScalarField;
    location    "1.2";
    object      T;
}
// * * * * * * * * * * * * * * * * * * * * * * * * * * * * * * * * * * * * * //

dimensions      [0 0 0 1 0 0 0];


internalField   nonuniform List<scalar> 
20400
(
291.686
291.692
291.711
291.754
291.829
291.927
292.051
292.185
292.326
292.458
292.574
292.666
292.741
292.792
292.825
292.839
292.844
292.843
292.842
292.835
292.829
292.824
292.823
292.827
292.839
292.859
292.875
292.889
292.906
292.93
292.957
292.986
293.013
293.047
293.084
293.128
293.17
293.209
293.235
293.257
293.267
293.279
293.289
293.309
293.33
293.358
293.382
293.409
293.428
293.448
293.467
293.489
293.513
293.551
293.589
293.628
293.641
293.667
293.692
293.737
293.781
293.833
293.862
293.893
293.922
293.963
293.991
294.026
294.056
294.09
294.114
294.134
294.139
294.143
294.143
294.14
294.13
294.117
294.098
294.074
294.037
294.002
293.96
293.909
293.848
293.78
293.708
293.639
293.574
293.522
293.473
293.44
293.397
293.359
293.303
293.251
293.198
293.138
293.105
293.072
293.08
293.056
293.008
292.953
292.908
292.884
292.864
292.875
292.823
292.81
292.808
292.796
292.769
292.767
292.776
292.793
292.792
292.788
292.79
292.782
292.764
292.755
292.742
292.745
292.733
292.725
292.717
292.718
292.718
292.72
292.716
292.718
292.712
292.716
292.713
292.719
292.718
292.718
292.711
292.69
292.657
292.615
292.567
292.516
292.467
292.422
292.382
292.351
292.326
292.308
292.29
292.274
292.262
292.255
292.253
292.252
292.256
292.265
292.285
292.315
292.356
292.406
292.475
292.545
292.623
292.704
292.785
292.865
292.942
293.017
293.089
293.162
293.233
293.307
293.382
293.455
293.524
293.584
293.631
293.666
293.688
293.715
293.746
293.799
293.851
293.929
294.015
294.105
294.184
294.235
294.273
294.265
294.271
294.279
294.29
294.287
294.305
294.319
294.322
294.324
294.323
294.325
294.322
294.323
294.312
294.291
294.244
294.177
294.076
293.95
293.803
293.651
293.507
293.38
293.281
293.207
293.165
293.14
293.134
293.127
293.131
293.134
293.144
293.147
293.183
293.24
293.286
293.332
293.365
293.416
293.464
293.517
293.544
293.566
293.575
293.572
293.573
293.569
293.571
293.564
293.554
293.539
293.525
293.514
293.504
293.499
293.492
293.493
293.488
293.483
293.479
293.477
293.473
293.47
293.465
293.463
293.454
293.443
293.434
293.427
293.428
293.424
293.421
293.416
293.414
293.405
293.395
293.386
293.38
293.382
293.378
293.377
293.375
293.385
293.389
293.397
293.394
293.4
293.419
293.446
293.474
293.509
293.535
293.563
293.579
293.592
293.599
293.6
293.6
293.597
293.59
293.576
293.557
293.533
293.509
293.485
293.462
293.44
293.417
293.395
293.373
293.347
293.326
293.302
293.285
293.262
293.235
293.201
293.169
293.129
293.089
293.047
293.008
292.973
292.944
292.926
292.908
292.899
292.882
292.866
292.843
292.827
292.815
292.807
292.798
292.792
292.787
292.781
292.778
292.776
292.771
292.763
292.759
292.757
292.758
292.758
292.758
292.758
292.759
292.759
292.761
292.762
292.767
292.771
292.779
292.783
292.79
292.795
292.801
292.806
292.809
292.811
292.81
292.811
292.809
292.81
292.81
292.807
292.802
292.795
292.799
292.797
292.804
292.81
292.814
292.813
292.814
292.814
292.811
292.808
292.8
292.796
292.791
292.792
292.789
292.792
292.785
292.778
292.772
292.768
292.767
292.766
292.767
292.77
292.776
292.785
292.796
292.807
292.817
292.827
292.836
292.845
292.854
292.861
292.869
292.876
292.882
292.889
292.894
292.9
292.905
292.911
292.917
292.924
292.932
292.943
292.953
292.966
292.977
292.989
293
293.01
293.018
293.026
293.032
293.038
293.044
293.05
293.055
293.06
293.064
293.068
293.07
293.071
293.071
293.071
293.069
293.071
293.072
293.076
293.08
293.086
293.092
293.098
293.104
293.11
293.117
293.122
293.127
293.132
293.136
293.14
293.143
293.146
293.148
293.151
293.153
293.155
293.158
293.16
293.162
293.163
293.164
293.163
293.164
293.162
293.16
293.158
293.157
293.157
293.156
293.155
293.154
293.153
293.152
293.151
293.149
293.147
293.145
293.143
293.14
293.137
293.135
293.133
293.132
293.132
293.131
293.131
293.131
293.132
293.135
293.141
293.15
293.162
293.178
293.195
293.214
293.233
293.251
293.267
293.282
293.295
293.307
293.318
293.328
293.335
293.338
293.338
293.338
293.337
291.689
291.69
291.712
291.759
291.827
291.931
292.049
292.188
292.324
292.46
292.573
292.666
292.737
292.788
292.819
292.832
292.836
292.835
292.834
292.823
292.821
292.809
292.809
292.809
292.829
292.843
292.874
292.873
292.898
292.908
292.954
292.964
293.009
293.017
293.073
293.098
293.166
293.18
293.228
293.231
293.254
293.25
293.271
293.273
293.313
293.32
293.368
293.375
293.409
293.418
293.442
293.454
293.488
293.507
293.57
293.591
293.637
293.634
293.681
293.691
293.775
293.798
293.868
293.87
293.922
293.944
293.999
294.012
294.058
294.077
294.117
294.124
294.14
294.133
294.14
294.132
294.13
294.114
294.097
294.067
294.037
293.997
293.956
293.901
293.841
293.767
293.701
293.626
293.565
293.505
293.461
293.418
293.384
293.334
293.292
293.234
293.188
293.12
293.087
293.043
293.06
293.014
292.968
292.909
292.868
292.843
292.854
292.813
292.793
292.719
292.735
292.685
292.691
292.67
292.711
292.715
292.746
292.721
292.728
292.724
292.727
292.712
292.719
292.708
292.715
292.706
292.709
292.705
292.704
292.705
292.711
292.705
292.713
292.71
292.714
292.709
292.71
292.707
292.696
292.681
292.645
292.609
292.56
292.511
292.464
292.419
292.382
292.35
292.326
292.307
292.291
292.276
292.265
292.26
292.257
292.258
292.257
292.266
292.282
292.314
292.352
292.413
292.473
292.546
292.62
292.706
292.785
292.868
292.945
293.022
293.094
293.17
293.238
293.316
293.386
293.463
293.527
293.588
293.63
293.664
293.685
293.71
293.74
293.792
293.839
293.919
294.017
294.104
294.183
294.236
294.259
294.298
294.298
294.319
294.312
294.317
294.32
294.327
294.337
294.333
294.339
294.333
294.34
294.329
294.331
294.3
294.273
294.191
294.113
293.971
293.847
293.665
293.544
293.39
293.302
293.211
293.17
293.147
293.139
293.136
293.131
293.138
293.156
293.164
293.186
293.235
293.291
293.32
293.35
293.393
293.464
293.502
293.536
293.557
293.573
293.583
293.578
293.574
293.575
293.574
293.563
293.544
293.528
293.511
293.503
293.492
293.489
293.481
293.477
293.471
293.468
293.465
293.463
293.456
293.454
293.44
293.437
293.417
293.413
293.401
293.405
293.399
293.403
293.395
293.395
293.381
293.376
293.37
293.374
293.37
293.374
293.37
293.372
293.375
293.382
293.379
293.393
293.399
293.422
293.443
293.477
293.502
293.53
293.549
293.565
293.581
293.588
293.592
293.591
293.59
293.582
293.571
293.552
293.529
293.506
293.483
293.462
293.439
293.417
293.394
293.372
293.349
293.323
293.302
293.279
293.261
293.233
293.207
293.167
293.135
293.091
293.056
293.011
292.981
292.949
292.933
292.913
292.905
292.886
292.87
292.85
292.835
292.816
292.807
292.798
292.792
292.786
292.781
292.778
292.777
292.77
292.765
292.759
292.759
292.757
292.758
292.758
292.759
292.758
292.759
292.76
292.761
292.766
292.771
292.778
292.783
292.789
292.795
292.8
292.805
292.809
292.811
292.812
292.811
292.811
292.808
292.809
292.802
292.796
292.788
292.789
292.793
292.802
292.803
292.806
292.809
292.815
292.814
292.815
292.808
292.806
292.799
292.8
292.793
292.791
292.785
292.788
292.781
292.777
292.769
292.765
292.764
292.765
292.767
292.772
292.78
292.79
292.801
292.811
292.821
292.83
292.84
292.847
292.856
292.862
292.871
292.876
292.883
292.888
292.895
292.899
292.906
292.911
292.918
292.927
292.936
292.949
292.96
292.973
292.983
292.996
293.005
293.015
293.022
293.03
293.035
293.043
293.047
293.054
293.058
293.062
293.065
293.066
293.066
293.069
293.068
293.07
293.069
293.072
293.074
293.081
293.084
293.092
293.097
293.105
293.11
293.117
293.122
293.127
293.131
293.136
293.14
293.143
293.146
293.148
293.151
293.153
293.155
293.157
293.16
293.162
293.164
293.164
293.164
293.163
293.163
293.161
293.16
293.158
293.157
293.157
293.156
293.155
293.154
293.153
293.152
293.15
293.148
293.145
293.143
293.14
293.138
293.135
293.134
293.132
293.132
293.131
293.131
293.131
293.131
293.134
293.139
293.147
293.158
293.173
293.19
293.208
293.226
293.245
293.26
293.276
293.288
293.302
293.313
293.323
293.33
293.333
293.334
293.333
293.332
291.688
291.697
291.72
291.772
291.839
291.931
292.051
292.185
292.326
292.458
292.576
292.664
292.731
292.777
292.801
292.818
292.818
292.816
292.807
292.809
292.794
292.789
292.779
292.785
292.788
292.83
292.838
292.873
292.862
292.893
292.901
292.965
292.957
293.006
293.014
293.085
293.102
293.173
293.178
293.212
293.21
293.225
293.213
293.238
293.24
293.289
293.292
293.344
293.346
293.374
293.375
293.4
293.399
293.455
293.456
293.557
293.562
293.62
293.606
293.664
293.659
293.787
293.791
293.885
293.885
293.951
293.968
294.027
294.032
294.08
294.104
294.135
294.13
294.139
294.131
294.136
294.124
294.116
294.097
294.067
294.036
294.001
293.958
293.899
293.831
293.76
293.69
293.616
293.553
293.495
293.445
293.408
293.362
293.331
293.285
293.258
293.192
293.144
293.089
293.068
292.99
292.951
292.869
292.831
292.784
292.769
292.766
292.747
292.659
292.664
292.599
292.624
292.581
292.611
292.589
292.634
292.64
292.661
292.619
292.638
292.624
292.643
292.628
292.644
292.629
292.642
292.641
292.647
292.645
292.65
292.654
292.664
292.661
292.666
292.663
292.663
292.661
292.653
292.651
292.628
292.611
292.568
292.535
292.488
292.446
292.41
292.377
292.347
292.325
292.303
292.291
292.278
292.271
292.268
292.27
292.27
292.271
292.276
292.296
292.321
292.359
292.408
292.475
292.541
292.622
292.695
292.786
292.859
292.947
293.012
293.097
293.158
293.242
293.297
293.385
293.435
293.522
293.558
293.627
293.646
293.693
293.708
293.757
293.769
293.853
293.908
294.013
294.108
294.201
294.262
294.305
294.344
294.361
294.38
294.379
294.371
294.375
294.384
294.381
294.391
294.385
294.393
294.376
294.389
294.367
294.371
294.317
294.294
294.179
294.127
293.897
293.829
293.587
293.533
293.326
293.286
293.182
293.17
293.164
293.161
293.157
293.157
293.169
293.208
293.2
293.229
293.279
293.333
293.327
293.351
293.408
293.487
293.488
293.51
293.54
293.566
293.556
293.556
293.563
293.568
293.557
293.545
293.529
293.511
293.49
293.484
293.46
293.455
293.437
293.437
293.43
293.431
293.419
293.416
293.397
293.39
293.368
293.379
293.365
293.371
293.36
293.368
293.358
293.364
293.348
293.346
293.33
293.337
293.332
293.338
293.334
293.338
293.335
293.342
293.341
293.351
293.356
293.376
293.385
293.413
293.436
293.461
293.479
293.495
293.523
293.53
293.552
293.554
293.559
293.558
293.556
293.545
293.532
293.51
293.492
293.474
293.457
293.438
293.415
293.392
293.37
293.346
293.325
293.301
293.285
293.259
293.237
293.202
293.175
293.135
293.119
293.06
293.038
292.981
292.97
292.932
292.928
292.897
292.886
292.867
292.865
292.842
292.831
292.808
292.804
292.793
292.79
292.785
292.784
292.777
292.777
292.77
292.767
292.763
292.764
292.762
292.764
292.762
292.763
292.762
292.764
292.764
292.769
292.773
292.78
292.784
292.789
292.793
292.799
292.804
292.809
292.813
292.815
292.813
292.809
292.808
292.804
292.803
292.794
292.8
292.793
292.81
292.818
292.821
292.809
292.819
292.819
292.82
292.815
292.82
292.811
292.815
292.808
292.806
292.798
292.795
292.788
292.784
292.774
292.769
292.762
292.758
292.756
292.754
292.757
292.762
292.771
292.778
292.79
292.796
292.808
292.814
292.826
292.831
292.842
292.846
292.856
292.859
292.869
292.871
292.879
292.881
292.888
292.893
292.902
292.915
292.923
292.942
292.948
292.968
292.974
292.993
292.997
293.012
293.014
293.027
293.029
293.043
293.047
293.055
293.056
293.059
293.059
293.062
293.062
293.067
293.067
293.069
293.068
293.072
293.075
293.084
293.086
293.097
293.1
293.11
293.114
293.122
293.125
293.131
293.135
293.14
293.143
293.146
293.148
293.151
293.153
293.155
293.158
293.16
293.163
293.165
293.168
293.168
293.169
293.168
293.167
293.164
293.162
293.161
293.159
293.16
293.159
293.158
293.157
293.155
293.154
293.151
293.149
293.145
293.144
293.14
293.138
293.135
293.134
293.132
293.132
293.131
293.129
293.128
293.129
293.131
293.136
293.144
293.156
293.171
293.187
293.205
293.22
293.239
293.251
293.269
293.279
293.295
293.303
293.312
293.315
293.316
293.315
293.314
291.693
291.701
291.733
291.78
291.862
291.944
292.072
292.186
292.344
292.459
292.58
292.662
292.729
292.764
292.789
292.796
292.798
292.788
292.784
292.782
292.779
292.765
292.763
292.757
292.765
292.772
292.828
292.83
292.861
292.846
292.886
292.889
292.965
292.96
293.006
293.03
293.093
293.098
293.152
293.154
293.17
293.162
293.163
293.154
293.172
293.174
293.233
293.234
293.273
293.272
293.287
293.29
293.291
293.293
293.358
293.361
293.488
293.488
293.54
293.531
293.588
293.591
293.756
293.779
293.89
293.891
293.971
293.988
294.049
294.075
294.109
294.123
294.134
294.131
294.135
294.128
294.127
294.115
294.097
294.068
294.043
294.003
293.968
293.909
293.839
293.767
293.701
293.628
293.565
293.508
293.46
293.419
293.378
293.335
293.308
293.259
293.221
293.136
293.086
292.992
292.932
292.818
292.767
292.705
292.698
292.665
292.698
292.62
292.649
292.557
292.603
292.525
292.567
292.505
292.55
292.537
292.553
292.509
292.532
292.49
292.506
292.498
292.51
292.495
292.502
292.495
292.507
292.498
292.508
292.514
292.519
292.525
292.528
292.534
292.531
292.533
292.527
292.533
292.521
292.52
292.491
292.488
292.452
292.432
292.403
292.382
292.359
292.344
292.315
292.305
292.282
292.279
292.275
292.278
292.284
292.296
292.294
292.305
292.317
292.347
292.37
292.422
292.47
292.541
292.61
292.687
292.755
292.848
292.904
292.998
293.046
293.132
293.178
293.268
293.303
293.404
293.444
293.551
293.564
293.644
293.66
293.703
293.694
293.768
293.806
293.922
294.007
294.126
294.224
294.307
294.372
294.412
294.471
294.489
294.486
294.475
294.487
294.484
294.492
294.488
294.504
294.482
294.503
294.473
294.494
294.459
294.464
294.399
294.406
294.242
294.216
293.903
293.897
293.622
293.609
293.329
293.321
293.214
293.22
293.213
293.219
293.201
293.231
293.244
293.272
293.25
293.271
293.307
293.338
293.328
293.347
293.403
293.456
293.437
293.46
293.497
293.513
293.501
293.498
293.516
293.528
293.515
293.503
293.472
293.465
293.422
293.416
293.369
293.368
293.352
293.358
293.346
293.34
293.311
293.311
293.291
293.3
293.29
293.296
293.287
293.293
293.281
293.291
293.275
293.271
293.249
293.257
293.249
293.253
293.251
293.253
293.247
293.254
293.254
293.261
293.255
293.268
293.279
293.3
293.311
293.332
293.346
293.355
293.386
293.393
293.442
293.447
293.473
293.477
293.486
293.486
293.486
293.474
293.464
293.453
293.456
293.446
293.433
293.413
293.392
293.366
293.345
293.323
293.306
293.285
293.274
293.242
293.225
293.185
293.182
293.128
293.129
293.052
293.038
292.975
292.975
292.934
292.919
292.89
292.881
292.864
292.863
292.835
292.828
292.804
292.801
292.789
292.788
292.782
292.783
292.78
292.775
292.765
292.762
292.76
292.76
292.759
292.76
292.759
292.762
292.76
292.765
292.765
292.772
292.774
292.783
292.786
292.793
292.798
292.803
292.81
292.815
292.822
292.818
292.821
292.817
292.82
292.814
292.816
292.81
292.83
292.844
292.85
292.837
292.84
292.838
292.842
292.835
292.836
292.835
292.835
292.827
292.831
292.823
292.816
292.807
292.794
292.789
292.777
292.771
292.759
292.75
292.737
292.733
292.727
292.728
292.728
292.736
292.74
292.751
292.754
292.766
292.77
292.783
292.786
292.798
292.8
292.812
292.814
292.824
292.825
292.831
292.832
292.84
292.85
292.855
292.88
292.881
292.912
292.913
292.943
292.944
292.973
292.972
292.992
292.991
293.014
293.016
293.04
293.041
293.047
293.046
293.049
293.049
293.058
293.058
293.064
293.064
293.067
293.065
293.071
293.072
293.084
293.085
293.097
293.099
293.112
293.115
293.125
293.129
293.135
293.139
293.143
293.146
293.148
293.151
293.153
293.156
293.158
293.162
293.165
293.172
293.175
293.18
293.18
293.18
293.177
293.175
293.171
293.169
293.169
293.168
293.169
293.168
293.166
293.165
293.161
293.16
293.156
293.155
293.149
293.148
293.142
293.142
293.137
293.136
293.132
293.132
293.128
293.125
293.12
293.118
293.118
293.12
293.126
293.135
293.147
293.158
293.176
293.185
293.207
293.214
293.237
293.245
293.262
293.268
293.272
293.273
293.272
293.271
291.7
291.71
291.735
291.787
291.862
291.98
292.072
292.253
292.349
292.514
292.589
292.686
292.731
292.767
292.775
292.788
292.781
292.781
292.77
292.773
292.766
292.769
292.759
292.754
292.747
292.766
292.767
292.818
292.822
292.845
292.829
292.887
292.9
292.984
293.007
293.034
293.027
293.066
293.071
293.1
293.1
293.098
293.071
293.066
293.054
293.072
293.078
293.124
293.125
293.135
293.134
293.134
293.13
293.145
293.136
293.222
293.228
293.372
293.376
293.418
293.39
293.462
293.479
293.714
293.731
293.879
293.877
293.977
293.995
294.076
294.091
294.124
294.129
294.127
294.128
294.126
294.122
294.114
294.095
294.075
294.043
294.015
293.969
293.922
293.851
293.785
293.711
293.645
293.574
293.525
293.47
293.437
293.375
293.347
293.269
293.256
293.156
293.098
292.96
292.911
292.775
292.706
292.618
292.593
292.581
292.591
292.519
292.585
292.496
292.522
292.488
292.476
292.43
292.488
292.41
292.389
292.363
292.367
292.299
292.304
292.282
292.294
292.268
292.267
292.246
292.252
292.25
292.25
292.259
292.26
292.264
292.266
292.279
292.276
292.283
292.278
292.291
292.291
292.294
292.284
292.296
292.293
292.317
292.316
292.313
292.315
292.326
292.317
292.313
292.283
292.281
292.268
292.274
292.277
292.298
292.314
292.335
292.334
292.351
292.361
292.409
292.423
292.49
292.54
292.612
292.664
292.737
292.786
292.886
292.908
293.008
293.018
293.123
293.128
293.253
293.25
293.393
293.417
293.54
293.556
293.611
293.587
293.647
293.661
293.793
293.861
294.005
294.116
294.233
294.333
294.411
294.519
294.553
294.629
294.608
294.639
294.621
294.655
294.64
294.668
294.647
294.659
294.648
294.663
294.627
294.641
294.606
294.616
294.554
294.557
294.346
294.311
294.016
294.006
293.745
293.728
293.404
293.411
293.295
293.31
293.302
293.315
293.288
293.331
293.319
293.335
293.277
293.29
293.312
293.335
293.31
293.323
293.366
293.399
293.382
293.387
293.41
293.423
293.413
293.422
293.438
293.444
293.428
293.417
293.374
293.375
293.295
293.282
293.234
293.239
293.222
293.224
293.184
293.178
293.148
293.155
293.149
293.159
293.154
293.158
293.149
293.158
293.146
293.142
293.114
293.113
293.104
293.106
293.1
293.1
293.09
293.09
293.092
293.096
293.094
293.093
293.098
293.108
293.115
293.128
293.14
293.139
293.161
293.159
293.219
293.222
293.299
293.305
293.34
293.346
293.364
293.366
293.367
293.365
293.389
293.399
293.42
293.413
293.408
293.385
293.368
293.344
293.327
293.306
293.303
293.283
293.279
293.244
293.246
293.208
293.21
293.15
293.151
293.071
293.062
293.003
292.998
292.954
292.945
292.909
292.905
292.874
292.874
292.842
292.837
292.808
292.801
292.789
292.788
292.787
292.783
292.775
292.766
292.759
292.757
292.755
292.756
292.755
292.756
292.757
292.76
292.762
292.767
292.769
292.774
292.78
292.788
292.792
292.798
292.803
292.809
292.818
292.818
292.835
292.832
292.843
292.839
292.841
292.835
292.861
292.875
292.886
292.872
292.872
292.873
292.875
292.867
292.865
292.862
292.864
292.857
292.855
292.852
292.847
292.841
292.825
292.816
292.793
292.791
292.773
292.762
292.74
292.724
292.702
292.696
292.677
292.675
292.669
292.674
292.673
292.68
292.68
292.69
292.692
292.703
292.704
292.716
292.717
292.73
292.732
292.738
292.738
292.743
292.746
292.75
292.771
292.773
292.809
292.81
292.85
292.85
292.888
292.889
292.922
292.923
292.951
292.95
292.99
292.993
293.024
293.025
293.025
293.027
293.035
293.036
293.048
293.049
293.057
293.056
293.059
293.057
293.063
293.064
293.077
293.076
293.089
293.091
293.11
293.115
293.129
293.132
293.139
293.142
293.145
293.148
293.15
293.153
293.156
293.16
293.164
293.172
293.178
293.189
293.194
293.199
293.198
293.196
293.191
293.188
293.186
293.185
293.187
293.186
293.186
293.184
293.179
293.178
293.174
293.174
293.166
293.166
293.156
293.157
293.149
293.149
293.141
293.14
293.132
293.129
293.121
293.114
293.105
293.098
293.091
293.088
293.088
293.088
293.095
293.099
293.114
293.118
293.143
293.148
293.174
293.181
293.193
293.196
293.197
293.195
293.194
291.71
291.71
291.736
291.784
291.872
291.975
292.145
292.256
292.441
292.52
292.645
292.692
292.748
292.767
292.781
292.776
292.78
292.772
292.774
292.766
292.769
292.762
292.764
292.756
292.753
292.742
292.762
292.766
292.798
292.8
292.804
292.803
292.884
292.917
292.96
292.958
292.953
292.942
292.965
292.963
292.966
292.942
292.938
292.897
292.894
292.893
292.922
292.928
292.941
292.937
292.935
292.929
292.935
292.924
292.95
292.94
293.062
293.072
293.2
293.203
293.208
293.189
293.306
293.344
293.619
293.648
293.807
293.82
293.945
293.956
294.08
294.081
294.12
294.119
294.12
294.117
294.116
294.108
294.096
294.075
294.05
294.012
293.972
293.915
293.854
293.779
293.712
293.635
293.579
293.507
293.474
293.401
293.373
293.296
293.268
293.166
293.123
292.992
292.923
292.787
292.71
292.578
292.523
292.458
292.507
292.438
292.455
292.429
292.453
292.35
292.422
292.32
292.395
292.301
292.254
292.129
292.155
292.087
292.06
292.017
292.014
291.992
291.947
291.923
291.904
291.908
291.893
291.895
291.896
291.899
291.889
291.899
291.897
291.912
291.904
291.923
291.922
291.939
291.93
291.952
291.96
292.033
292.054
292.134
292.148
292.207
292.221
292.275
292.267
292.265
292.244
292.259
292.254
292.276
292.291
292.335
292.349
292.365
292.353
292.389
292.408
292.476
292.503
292.574
292.608
292.665
292.707
292.77
292.8
292.887
292.896
292.96
292.969
293.055
293.054
293.202
293.199
293.347
293.376
293.451
293.44
293.492
293.485
293.604
293.658
293.809
293.945
294.082
294.225
294.314
294.452
294.544
294.696
294.695
294.796
294.798
294.805
294.808
294.864
294.836
294.851
294.838
294.865
294.836
294.851
294.814
294.817
294.77
294.779
294.689
294.698
294.428
294.398
294.151
294.143
293.878
293.862
293.53
293.535
293.408
293.435
293.429
293.443
293.375
293.383
293.371
293.374
293.275
293.283
293.299
293.325
293.282
293.288
293.314
293.335
293.299
293.299
293.317
293.329
293.317
293.324
293.325
293.33
293.31
293.309
293.216
293.208
293.102
293.099
293.063
293.069
293.025
293.023
292.961
292.957
292.949
292.954
292.949
292.957
292.95
292.957
292.951
292.949
292.92
292.912
292.897
292.885
292.887
292.879
292.868
292.855
292.854
292.857
292.856
292.846
292.846
292.845
292.851
292.849
292.859
292.862
292.865
292.867
292.895
292.892
292.99
292.998
293.096
293.105
293.151
293.158
293.189
293.188
293.226
293.234
293.328
293.339
293.384
293.38
293.377
293.354
293.344
293.326
293.319
293.306
293.312
293.298
293.298
293.276
293.286
293.255
293.256
293.194
293.198
293.124
293.119
293.053
293.048
293.013
293.011
292.953
292.946
292.901
292.9
292.861
292.852
292.822
292.811
292.806
292.807
292.8
292.789
292.777
292.766
292.759
292.757
292.754
292.755
292.755
292.757
292.759
292.763
292.766
292.769
292.774
292.781
292.787
292.794
292.798
292.801
292.809
292.811
292.829
292.839
292.864
292.862
292.872
292.863
292.889
292.906
292.922
292.911
292.913
292.918
292.912
292.907
292.904
292.899
292.899
292.899
292.892
292.888
292.876
292.879
292.866
292.861
292.833
292.829
292.792
292.789
292.765
292.741
292.711
292.688
292.654
292.642
292.609
292.608
292.588
292.589
292.575
292.575
292.573
292.577
292.577
292.582
292.584
292.594
292.597
292.605
292.606
292.608
292.607
292.61
292.62
292.622
292.651
292.657
292.702
292.71
292.751
292.757
292.797
292.799
292.846
292.843
292.894
292.893
292.95
292.955
292.99
292.987
292.999
292.999
293.01
293.01
293.029
293.031
293.041
293.038
293.042
293.041
293.049
293.05
293.06
293.06
293.074
293.076
293.109
293.112
293.133
293.133
293.139
293.142
293.146
293.149
293.153
293.156
293.162
293.169
293.178
293.191
293.198
293.214
293.217
293.223
293.221
293.22
293.215
293.213
293.215
293.213
293.214
293.213
293.208
293.206
293.201
293.201
293.196
293.195
293.183
293.182
293.172
293.172
293.16
293.16
293.145
293.143
293.129
293.122
293.11
293.098
293.082
293.067
293.053
293.039
293.029
293.018
293.016
293.013
293.022
293.024
293.049
293.055
293.076
293.08
293.083
293.081
293.079
293.077
291.712
291.724
291.736
291.793
291.87
292.01
292.137
292.334
292.441
292.581
292.647
292.715
292.74
292.768
292.768
292.771
292.768
292.771
292.769
292.773
292.758
292.753
292.748
292.743
292.713
292.705
292.685
292.701
292.701
292.714
292.704
292.726
292.738
292.817
292.821
292.835
292.81
292.808
292.802
292.803
292.779
292.788
292.746
292.741
292.708
292.71
292.708
292.712
292.709
292.703
292.69
292.699
292.681
292.702
292.686
292.732
292.716
292.861
292.87
292.938
292.923
292.933
292.924
293.107
293.15
293.453
293.492
293.684
293.7
293.871
293.881
294.034
294.038
294.094
294.093
294.096
294.096
294.095
294.087
294.07
294.045
294.012
293.966
293.916
293.849
293.782
293.705
293.647
293.571
293.524
293.448
293.403
293.332
293.3
293.208
293.161
293.057
292.991
292.874
292.773
292.64
292.552
292.449
292.447
292.384
292.415
292.366
292.397
292.299
292.321
292.22
292.316
292.212
292.148
291.957
291.894
291.863
291.785
291.731
291.696
291.699
291.59
291.571
291.51
291.514
291.482
291.485
291.453
291.474
291.444
291.453
291.436
291.455
291.44
291.463
291.459
291.484
291.467
291.494
291.499
291.573
291.599
291.771
291.807
291.938
291.962
292.098
292.12
292.21
292.197
292.201
292.203
292.25
292.243
292.287
292.31
292.363
292.351
292.37
292.38
292.448
292.487
292.58
292.579
292.633
292.659
292.711
292.74
292.789
292.808
292.858
292.856
292.89
292.891
292.99
292.993
293.153
293.148
293.251
293.253
293.3
293.292
293.375
293.438
293.564
293.698
293.837
294.05
294.119
294.307
294.421
294.605
294.697
294.859
294.881
294.967
294.898
295.011
295.024
295.036
295.02
295.058
295.043
295.058
295.025
295.028
294.967
294.966
294.882
294.891
294.757
294.747
294.49
294.458
294.269
294.254
293.991
293.975
293.667
293.662
293.539
293.567
293.497
293.479
293.385
293.439
293.377
293.35
293.242
293.258
293.271
293.306
293.245
293.24
293.25
293.272
293.219
293.217
293.223
293.235
293.211
293.215
293.203
293.211
293.167
293.166
293.01
293.002
292.911
292.914
292.861
292.863
292.774
292.771
292.712
292.713
292.695
292.702
292.695
292.703
292.698
292.693
292.673
292.655
292.651
292.616
292.61
292.608
292.601
292.569
292.557
292.558
292.56
292.54
292.534
292.532
292.532
292.522
292.526
292.524
292.535
292.53
292.547
292.532
292.572
292.579
292.728
292.746
292.84
292.854
292.912
292.921
292.982
292.989
293.089
293.099
293.266
293.276
293.339
293.335
293.334
293.32
293.327
293.32
293.317
293.314
293.326
293.324
293.322
293.32
293.34
293.31
293.305
293.263
293.274
293.213
293.182
293.127
293.144
293.102
293.099
293.008
293.006
292.944
292.941
292.894
292.876
292.853
292.852
292.844
292.841
292.819
292.809
292.785
292.773
292.759
292.757
292.756
292.756
292.758
292.76
292.763
292.766
292.769
292.775
292.78
292.789
292.793
292.798
292.803
292.799
292.812
292.825
292.858
292.87
292.89
292.882
292.915
292.941
292.961
292.953
292.958
292.969
292.957
292.951
292.944
292.945
292.938
292.94
292.933
292.937
292.924
292.92
292.904
292.904
292.884
292.887
292.847
292.841
292.788
292.771
292.738
292.713
292.677
292.646
292.6
292.579
292.535
292.53
292.491
292.483
292.45
292.449
292.439
292.432
292.433
292.43
292.435
292.437
292.441
292.441
292.44
292.441
292.441
292.443
292.458
292.463
292.498
292.509
292.568
292.578
292.617
292.623
292.677
292.677
292.749
292.749
292.81
292.817
292.885
292.888
292.944
292.941
292.957
292.948
292.964
292.966
292.999
293.003
293.006
293.01
293.02
293.017
293.023
293.025
293.032
293.031
293.055
293.058
293.106
293.106
293.128
293.127
293.134
293.137
293.146
293.149
293.156
293.163
293.173
293.185
293.197
293.216
293.222
293.244
293.244
293.256
293.256
293.255
293.254
293.251
293.253
293.252
293.249
293.248
293.241
293.24
293.235
293.235
293.225
293.224
293.209
293.209
293.194
293.194
293.175
293.175
293.15
293.146
293.123
293.114
293.095
293.076
293.052
293.028
293.004
292.977
292.956
292.932
292.92
292.908
292.912
292.912
292.932
292.935
292.941
292.936
292.933
292.926
292.923
291.729
291.725
291.756
291.794
291.902
292.01
292.206
292.328
292.497
292.584
292.668
292.706
292.741
292.743
292.756
292.746
292.754
292.743
292.749
292.732
292.722
292.692
292.698
292.668
292.664
292.615
292.616
292.601
292.61
292.6
292.602
292.599
292.64
292.646
292.675
292.665
292.667
292.641
292.646
292.602
292.596
292.592
292.591
292.541
292.548
292.498
292.495
292.469
292.468
292.451
292.455
292.433
292.451
292.43
292.458
292.457
292.48
292.495
292.602
292.585
292.616
292.594
292.644
292.637
292.862
292.887
293.247
293.267
293.494
293.52
293.72
293.756
293.937
293.946
294.036
294.035
294.05
294.056
294.055
294.053
294.033
294.004
293.965
293.909
293.853
293.781
293.718
293.64
293.594
293.513
293.458
293.39
293.346
293.27
293.227
293.149
293.076
292.977
292.891
292.776
292.643
292.519
292.462
292.378
292.41
292.365
292.378
292.28
292.248
292.165
292.21
292.141
292.062
291.867
291.709
291.695
291.503
291.464
291.379
291.409
291.267
291.236
291.119
291.134
291.079
291.091
291.024
291.032
290.966
290.994
290.96
290.966
290.96
290.969
290.96
290.982
290.971
290.994
290.994
291.059
291.066
291.236
291.258
291.514
291.55
291.735
291.753
291.97
292.004
292.13
292.087
292.153
292.169
292.243
292.223
292.293
292.309
292.369
292.348
292.404
292.445
292.545
292.597
292.649
292.631
292.682
292.709
292.753
292.76
292.796
292.799
292.818
292.808
292.834
292.842
292.969
292.976
293.077
293.081
293.123
293.118
293.166
293.203
293.318
293.444
293.548
293.782
293.867
294.103
294.211
294.417
294.571
294.756
294.869
294.985