/*--------------------------------*- C++ -*----------------------------------*\
| =========                 |                                                 |
| \\      /  F ield         | OpenFOAM: The Open Source CFD Toolbox           |
|  \\    /   O peration     | Version:  v1812                                 |
|   \\  /    A nd           | Web:      www.OpenFOAM.com                      |
|    \\/     M anipulation  |                                                 |
\*---------------------------------------------------------------------------*/
FoamFile
{
    version     2.0;
    format      ascii;
    class       volVectorField;
    location    "1.2";
    object      U;
}
// * * * * * * * * * * * * * * * * * * * * * * * * * * * * * * * * * * * * * //

dimensions      [0 1 -1 0 0 0 0];


internalField   nonuniform List<vector> 
20400
(
(-0.0208015 -0.0324899 0)
(-0.107093 -0.0828321 0)
(-0.108068 -0.0766991 0)
(-0.282727 -0.0397517 0)
(-0.285103 -0.0829585 0)
(-0.493636 -0.00797583 0)
(-0.497234 -0.0585281 0)
(-0.742246 -0.0022463 0)
(-0.741404 -0.0803792 0)
(-1.01145 -0.00808278 0)
(-1.01979 -0.0773474 0)
(-1.30386 -0.00175103 0)
(-1.30584 -0.0772014 0)
(-1.59698 0.00225975 0)
(-1.61232 -0.069967 0)
(-1.90903 0.0045557 0)
(-1.92298 -0.0669629 0)
(-2.22319 0.00431905 0)
(-2.23836 -0.0611969 0)
(-2.54204 -0.00793817 0)
(-2.55734 -0.0787123 0)
(-2.84882 0.00102532 0)
(-2.86548 -0.0585148 0)
(-3.16735 0.0110111 0)
(-3.18661 -0.0514173 0)
(-3.4929 0.0354163 0)
(-3.51719 -0.0375442 0)
(-3.83356 0.0343547 0)
(-3.85612 -0.044183 0)
(-4.16856 0.0333049 0)
(-4.19372 -0.054479 0)
(-4.52184 0.0172433 0)
(-4.55102 -0.0801712 0)
(-4.90884 -0.00590357 0)
(-4.94039 -0.0849396 0)
(-5.32735 0.0170317 0)
(-5.37144 -0.0670968 0)
(-5.78501 0.0332322 0)
(-5.82837 -0.0506892 0)
(-6.26761 0.040194 0)
(-6.30932 -0.0270222 0)
(-6.78072 0.0477125 0)
(-6.82961 -0.0132893 0)
(-7.28231 0.0631955 0)
(-7.34163 0.00514155 0)
(-7.69527 0.0523833 0)
(-7.74352 -0.000565285 0)
(-7.93625 0.00207927 0)
(-7.95777 -0.0237133 0)
(-7.98627 -0.031373 0)
(-7.97 -0.04161 0)
(-7.93937 -0.0424875 0)
(-7.86046 -0.0118382 0)
(-7.84273 0.0157561 0)
(-7.69357 0.0410007 0)
(-7.68382 0.0888943 0)
(-7.46628 0.0435216 0)
(-7.45902 0.0535727 0)
(-7.16119 0.0259419 0)
(-7.15573 0.0554256 0)
(-6.89061 0.00403533 0)
(-6.88045 0.0498436 0)
(-6.62039 -0.0277485 0)
(-6.61722 -5.08855e-05 0)
(-6.30471 -0.0695566 0)
(-6.31337 -0.0610814 0)
(-5.92557 -0.087473 0)
(-5.93647 -0.0942817 0)
(-5.5546 -0.069877 0)
(-5.55095 -0.106424 0)
(-5.21717 -0.0505982 0)
(-5.19858 -0.0870761 0)
(-4.89921 -0.0214489 0)
(-4.88561 -0.0501828 0)
(-4.66437 0.0239907 0)
(-4.65786 -0.0174385 0)
(-4.4424 -0.00490984 0)
(-4.42556 -0.0203506 0)
(-4.20185 -0.0719682 0)
(-4.17198 -0.0917702 0)
(-3.97502 -0.0705507 0)
(-3.97018 -0.0694086 0)
(-3.82572 -0.0865107 0)
(-3.85803 -0.0753053 0)
(-3.8187 -0.078159 0)
(-4.00281 -0.023653 0)
(-3.97534 -0.0712766 0)
(-4.30448 0.0191587 0)
(-4.31876 -0.0851449 0)
(-4.82285 0.0482121 0)
(-4.87039 -0.0840769 0)
(-5.61219 0.0851391 0)
(-5.68917 -0.0797328 0)
(-6.67517 0.105684 0)
(-6.78412 -0.0790769 0)
(-7.94581 0.117026 0)
(-8.11498 -0.0752737 0)
(-9.33243 0.164623 0)
(-9.59023 -0.0196422 0)
(-10.7542 0.170544 0)
(-11.1326 0.0207477 0)
(-11.9946 0.163656 0)
(-12.3801 0.0885636 0)
(-12.8196 0.0325795 0)
(-12.9859 -0.0510446 0)
(-13.0292 -0.10607 0)
(-12.8498 -0.165626 0)
(-12.7575 -0.253542 0)
(-12.1664 -0.21093 0)
(-12.1343 -0.242328 0)
(-11.3639 -0.0507069 0)
(-11.3281 -0.130213 0)
(-10.3721 0.0999643 0)
(-10.308 0.114105 0)
(-9.16779 0.389263 0)
(-8.97656 0.366528 0)
(-8.19266 0.515194 0)
(-8.0373 0.277906 0)
(-7.27145 0.357423 0)
(-6.97018 0.365317 0)
(-6.08295 0.484712 0)
(-5.7226 0.375786 0)
(-4.98028 0.437685 0)
(-4.6258 0.314538 0)
(-3.99511 0.387887 0)
(-3.61981 0.2444 0)
(-3.06379 0.25379 0)
(-2.65456 0.132014 0)
(-2.16546 0.0446614 0)
(-1.72932 -0.031452 0)
(-1.31662 -0.0969164 0)
(-1.02507 -0.262465 0)
(-0.657181 -0.313694 0)
(-0.373229 -0.257322 0)
(-0.121442 -0.162976 0)
(-0.00131583 -0.0846641 0)
(0.144805 -0.0161073 0)
(0.159491 0.00821943 0)
(0.266134 0.00551963 0)
(0.256903 0.0130146 0)
(0.306436 -0.0023669 0)
(0.305999 -0.000184102 0)
(0.313761 4.01182e-05 0)
(0.304241 0.000561071 0)
(0.303243 0.00395553 0)
(0.264418 -0.00325386 0)
(0.269678 0.00236731 0)
(0.228281 -0.0152428 0)
(0.248709 -0.00740654 0)
(0.174947 -0.00618741 0)
(0.175704 0.00333135 0)
(0.0867819 -0.00681492 0)
(0.0904354 0.00532734 0)
(0.0245555 0.00149207 0)
(0.0249347 -0.00075951 0)
(-0.00728892 0.0160047 0)
(-0.0277109 0.0251416 0)
(-0.0825888 0.0673689 0)
(-0.180012 0.0977083 0)
(-0.314846 0.127399 0)
(-0.45769 0.122304 0)
(-0.604455 -0.0135346 0)
(-0.702709 -0.0589992 0)
(-0.876374 -0.0576571 0)
(-0.989947 -0.105467 0)
(-1.20074 -0.0850736 0)
(-1.31974 -0.130441 0)
(-1.59485 -0.102206 0)
(-1.70861 -0.145217 0)
(-2.03896 -0.0806205 0)
(-2.13967 -0.134915 0)
(-2.50453 -0.0386451 0)
(-2.61548 -0.0987011 0)
(-3.01104 0.0103969 0)
(-3.15369 -0.037781 0)
(-3.55484 0.0605842 0)
(-3.72901 0.028738 0)
(-4.05229 0.0516825 0)
(-4.21284 0.00725158 0)
(-4.3544 0.0119677 0)
(-4.40399 0.0413124 0)
(-4.38929 0.07638 0)
(-4.29282 0.0827417 0)
(-4.05612 0.147015 0)
(-3.82856 0.206576 0)
(-3.43977 0.223212 0)
(-3.10166 0.221206 0)
(-2.64635 0.122353 0)
(-2.23789 0.056989 0)
(-1.79334 -0.00573071 0)
(-1.52009 -0.140609 0)
(-1.11394 -0.387782 0)
(-0.755332 -0.362836 0)
(-0.427465 -0.259575 0)
(-0.229105 -0.207209 0)
(-0.0424091 -0.114462 0)
(-0.0279976 -0.0796347 0)
(0.255936 -0.0852966 0)
(0.223345 -0.0287577 0)
(0.516135 -0.0605292 0)
(0.453198 -0.00591561 0)
(0.763262 -0.062839 0)
(0.700203 -0.0101277 0)
(0.992256 -0.0479113 0)
(0.941771 -0.0106262 0)
(1.17117 -0.0324978 0)
(1.12633 -0.0134618 0)
(1.25896 -0.0161963 0)
(1.23835 -0.00759531 0)
(1.25821 0.000286128 0)
(1.22179 -0.0131567 0)
(1.22418 0.0121484 0)
(1.15452 -0.0134698 0)
(1.14013 0.0251572 0)
(1.01717 -0.0144436 0)
(1.00074 0.0303143 0)
(0.826799 -0.0259143 0)
(0.853705 0.0309339 0)
(0.612888 -0.0200631 0)
(0.683239 0.0369258 0)
(0.388462 -0.0368548 0)
(0.497384 0.00773181 0)
(0.215381 0.007572 0)
(0.317593 0.0575953 0)
(0.0963342 -0.0278862 0)
(0.125543 0.0208924 0)
(-0.0618017 0.0797898 0)
(-0.134241 0.0930659 0)
(-0.306915 0.183406 0)
(-0.517884 0.226844 0)
(-0.809948 0.0226152 0)
(-0.945361 -0.0624109 0)
(-1.21055 -0.0896481 0)
(-1.35857 -0.0993027 0)
(-1.65726 -0.108353 0)
(-1.76653 -0.130091 0)
(-2.02017 -0.0449584 0)
(-2.07941 -0.0906851 0)
(-2.39668 -0.0807082 0)
(-2.4348 -0.0791338 0)
(-2.7102 0.0351272 0)
(-2.73302 -0.0152812 0)
(-3.01307 0.088659 0)
(-3.05763 0.0721536 0)
(-3.37245 0.13152 0)
(-3.42234 0.0945398 0)
(-3.71646 0.142534 0)
(-3.81088 0.113643 0)
(-4.04891 0.116658 0)
(-4.14189 0.084047 0)
(-4.26503 0.0598118 0)
(-4.31536 0.0268893 0)
(-4.34289 0.00148694 0)
(-4.34202 -0.0187292 0)
(-4.2835 -0.0368002 0)
(-4.25092 -0.0464698 0)
(-4.1186 -0.00509352 0)
(-4.09702 -0.00950739 0)
(-3.93111 0.0513054 0)
(-3.90216 0.0336877 0)
(-3.69032 0.0966596 0)
(-3.63724 0.107862 0)
(-3.4182 0.189331 0)
(-3.34299 0.148333 0)
(-3.11763 0.163352 0)
(-3.00162 0.142858 0)
(-2.72027 0.187433 0)
(-2.56893 0.169364 0)
(-2.26178 0.214302 0)
(-2.10317 0.147611 0)
(-1.87423 0.187597 0)
(-1.73249 0.128909 0)
(-1.51119 0.112136 0)
(-1.33927 0.0656524 0)
(-1.13834 0.0694966 0)
(-1.01998 0.0153169 0)
(-0.841249 -0.16134 0)
(-0.668495 -0.156835 0)
(-0.516255 -0.120391 0)
(-0.376409 -0.1296 0)
(-0.242105 -0.10425 0)
(-0.138106 -0.0897233 0)
(-0.0392564 -0.0554556 0)
(-0.00613003 -0.0354865 0)
(0.0660016 -0.00532084 0)
(0.0681011 -0.00350019 0)
(0.120908 0.00201986 0)
(0.114162 0.004285 0)
(0.1526 0.000305694 0)
(0.149192 0.00286071 0)
(0.174113 -0.000689794 0)
(0.171032 0.00156145 0)
(0.182773 -0.0010599 0)
(0.18246 0.000164149 0)
(0.184794 0.00116348 0)
(0.176834 -0.00121601 0)
(0.179341 0.000854916 0)
(0.151345 -0.00880447 0)
(0.159754 -0.000490846 0)
(0.106411 -0.0109455 0)
(0.10554 0.00101444 0)
(0.0284853 0.0215085 0)
(-0.00869329 0.0545733 0)
(-0.118449 0.100181 0)
(-0.239336 0.125377 0)
(-0.385254 0.114104 0)
(-0.499769 0.0540486 0)
(-0.632222 -0.0266513 0)
(-0.720927 -0.0505271 0)
(-0.854668 -0.0644258 0)
(-0.942555 -0.0858285 0)
(-1.07649 -0.0786711 0)
(-1.15174 -0.0811658 0)
(-1.29448 -0.0660602 0)
(-1.35739 -0.0627251 0)
(-1.47106 -0.0602617 0)
(-1.49709 -0.062306 0)
(-1.59724 -0.024751 0)
(-1.61089 -0.0244331 0)
(-1.68222 1.75807e-05 0)
(-1.68294 -0.00117798 0)
(-1.6911 0.00222555 0)
(-1.70257 0.00808001 0)
(-1.76368 0.0385688 0)
(-1.76568 0.0360106 0)
(-1.84932 0.0453929 0)
(-1.85166 0.037393 0)
(-1.91999 0.0442904 0)
(-1.91353 0.0344421 0)
(-1.99128 0.0548126 0)
(-1.99562 0.0485638 0)
(-2.10013 0.0526117 0)
(-2.0965 0.0275108 0)
(-2.20351 0.0409286 0)
(-2.21092 0.00949224 0)
(-2.35472 0.0350513 0)
(-2.36665 0.00555171 0)
(-2.542 0.036931 0)
(-2.55848 0.0107975 0)
(-2.75392 0.0464197 0)
(-2.77674 0.0227972 0)
(-2.97788 0.0558574 0)
(-3.00999 0.0379586 0)
(-3.2014 0.0694183 0)
(-3.24677 0.0586083 0)
(-3.40134 0.0686265 0)
(-3.45082 0.0483146 0)
(-3.55626 0.0480114 0)
(-3.60008 0.0249793 0)
(-3.6439 -0.00176312 0)
(-3.6566 -0.025823 0)
(-3.65139 -0.0471747 0)
(-3.59886 -0.062234 0)
(-3.57701 -0.07422 0)
(-3.48277 -0.0508234 0)
(-3.47802 -0.0547527 0)
(-3.4152 -0.0226461 0)
(-3.4312 -0.0242506 0)
(-3.36742 0.0196779 0)
(-3.37114 0.0326052 0)
(-3.2212 0.107986 0)
(-3.16921 0.109231 0)
(-2.95247 0.0941087 0)
(-2.87289 0.0509744 0)
(-2.66278 0.135334 0)
(-2.56676 0.147076 0)
(-2.31358 0.205315 0)
(-2.20146 0.1689 0)
(-1.99742 0.184737 0)
(-1.88564 0.144829 0)
(-1.70932 0.15225 0)
(-1.59004 0.111019 0)
(-1.42647 0.120218 0)
(-1.31537 0.0727316 0)
(-1.16105 0.0373685 0)
(-1.06868 0.000248264 0)
(-0.958733 -0.101449 0)
(-0.857758 -0.094839 0)
(-0.76511 -0.0807631 0)
(-0.676914 -0.0813049 0)
(-0.599843 -0.0743231 0)
(-0.526887 -0.0683842 0)
(-0.460498 -0.0617591 0)
(-0.400577 -0.0557459 0)
(-0.345 -0.0492373 0)
(-0.297985 -0.042872 0)
(-0.253991 -0.0366538 0)
(-0.218395 -0.0322742 0)
(-0.183791 -0.0270801 0)
(-0.156352 -0.0249453 0)
(-0.12716 -0.0221496 0)
(-0.10442 -0.0196908 0)
(-0.0802005 -0.0171384 0)
(-0.061493 -0.0154447 0)
(-0.0409415 -0.0136916 0)
(-0.0257388 -0.0116665 0)
(-0.00950937 -0.00915879 0)
(-0.000154928 -0.00518828 0)
(0.00638054 0.000800958 0)
(0.00704563 0.00239852 0)
(0.0103786 0.00376831 0)
(0.0106522 0.0041306 0)
(0.0105343 0.00585505 0)
(0.00996316 0.00762211 0)
(0.00334363 0.0125544 0)
(-0.000287955 0.0174522 0)
(-0.0148931 0.023424 0)
(-0.0303914 0.0258384 0)
(-0.0517883 0.025645 0)
(-0.0721152 0.0305437 0)
(-0.102193 0.0381091 0)
(-0.134898 0.0409477 0)
(-0.172447 0.041234 0)
(-0.206015 0.0420285 0)
(-0.24275 0.0388727 0)
(-0.272774 0.0375478 0)
(-0.302355 0.0320678 0)
(-0.327352 0.033769 0)
(-0.35734 0.0392976 0)
(-0.389545 0.0392254 0)
(-0.422563 0.0404153 0)
(-0.458394 0.0406452 0)
(-0.492745 0.0391264 0)
(-0.530911 0.0344014 0)
(-0.560632 0.0201264 0)
(-0.586897 -0.00899501 0)
(-0.622611 -0.0200936 0)
(-0.655054 -0.0301125 0)
(-0.693801 -0.0303075 0)
(-0.723811 -0.0382238 0)
(-0.754934 -0.0334612 0)
(-0.778939 -0.0378579 0)
(-0.80188 -0.0316287 0)
(-0.819736 -0.0341747 0)
(-0.835873 -0.0298895 0)
(-0.848571 -0.0322121 0)
(-0.858903 -0.0351423 0)
(-0.86827 -0.0321894 0)
(-0.876308 -0.023892 0)
(-0.881741 -0.00940471 0)
(-0.885621 0.00727138 0)
(-0.888092 0.0214531 0)
(-0.889241 0.0297706 0)
(-0.88969 0.0327805 0)
(-0.888661 0.0331918 0)
(-0.887124 0.0313618 0)
(-0.883308 0.0290816 0)
(-0.876386 0.0286131 0)
(-0.869142 0.0270326 0)
(-0.860223 0.0317334 0)
(-0.853108 0.0278334 0)
(-0.844301 0.0309903 0)
(-0.837794 0.0250328 0)
(-0.828065 0.0238099 0)
(-0.81988 0.0137772 0)
(-0.814125 -0.0108118 0)
(-0.805797 -0.0164545 0)
(-0.794826 -0.0192127 0)
(-0.782422 -0.0210684 0)
(-0.769042 -0.0215192 0)
(-0.755191 -0.0219767 0)
(-0.742138 -0.0201743 0)
(-0.731253 -0.0176297 0)
(-0.722874 -0.0148605 0)
(-0.717749 -0.0120191 0)
(-0.713221 -0.0123664 0)
(-0.709362 -0.0111568 0)
(-0.706127 -0.0111128 0)
(-0.702512 -0.0113551 0)
(-0.699366 -0.0102479 0)
(-0.697774 -0.00864804 0)
(-0.696835 -0.00812577 0)
(-0.695725 -0.00902264 0)
(-0.693397 -0.00990898 0)
(-0.69023 -0.0100659 0)
(-0.687222 -0.00938373 0)
(-0.685027 -0.00792466 0)
(-0.683962 -0.00643022 0)
(-0.684349 -0.00491842 0)
(-0.686041 -0.0036243 0)
(-0.688776 -0.0024225 0)
(-0.69235 -0.00135671 0)
(-0.696987 -0.000322538 0)
(-0.70213 0.000462642 0)
(-0.708197 0.0011158 0)
(-0.714115 0.00134513 0)
(-0.720537 0.00144113 0)
(-0.726344 0.0016611 0)
(-0.732371 0.00125862 0)
(-0.737353 0.00124269 0)
(-0.742106 0.000618398 0)
(-0.745828 0.000578361 0)
(-0.74892 -8.88601e-05 0)
(-0.751136 -0.00011798 0)
(-0.752838 -0.000424103 0)
(-0.753812 -0.000435874 0)
(-0.754373 -0.000597254 0)
(-0.754737 -0.000635764 0)
(-0.754662 -0.000481961 0)
(-0.751182 -0.000490524 0)
(-0.0775521 -0.0389376 0)
(-0.134978 -0.0811063 0)
(-0.470911 -0.0019522 0)
(-0.468412 -0.0348357 0)
(-0.972823 0.0622478 0)
(-0.967351 -0.0495114 0)
(-1.51576 0.0800717 0)
(-1.49751 -0.0270876 0)
(-2.09379 0.122014 0)
(-2.06064 0.0184795 0)
(-2.69448 0.135642 0)
(-2.64677 0.0212313 0)
(-3.28358 0.14167 0)
(-3.23955 0.0419455 0)
(-3.87638 0.148917 0)
(-3.83114 0.0523473 0)
(-4.45612 0.147353 0)
(-4.41218 0.0573527 0)
(-5.02038 0.149296 0)
(-4.98015 0.071478 0)
(-5.57193 0.145793 0)
(-5.52019 0.0631851 0)
(-6.10569 0.142013 0)
(-6.06009 0.0651165 0)
(-6.64142 0.145204 0)
(-6.61616 0.0498868 0)
(-7.19609 0.163713 0)
(-7.16879 0.0594505 0)
(-7.74954 0.157157 0)
(-7.72513 0.059969 0)
(-8.30984 0.183865 0)
(-8.30462 0.0874267 0)
(-8.88487 0.228057 0)
(-8.87147 0.134655 0)
(-9.47199 0.249569 0)
(-9.47471 0.151689 0)
(-10.0917 0.280043 0)
(-10.1039 0.169619 0)
(-10.6958 0.287992 0)
(-10.7042 0.190431 0)
(-11.2934 0.279565 0)
(-11.3 0.220298 0)
(-11.8547 0.263865 0)
(-11.8579 0.213284 0)
(-12.332 0.211919 0)
(-12.3383 0.13546 0)
(-12.6733 0.100257 0)
(-12.6852 0.0306575 0)
(-12.8518 -0.0320014 0)
(-12.8656 -0.0643657 0)
(-12.8887 -0.0990129 0)
(-12.8578 -0.135296 0)
(-12.8371 -0.135928 0)
(-12.7007 -0.190742 0)
(-12.6933 -0.175733 0)
(-12.4385 -0.257813 0)
(-12.4423 -0.23306 0)
(-12.0465 -0.291301 0)
(-12.0456 -0.270986 0)
(-11.5871 -0.265154 0)
(-11.5935 -0.24038 0)
(-11.1016 -0.27368 0)
(-11.112 -0.228515 0)
(-10.5484 -0.279787 0)
(-10.5737 -0.251018 0)
(-9.95234 -0.294716 0)
(-9.97526 -0.295891 0)
(-9.34522 -0.271023 0)
(-9.35266 -0.300957 0)
(-8.78879 -0.235889 0)
(-8.78326 -0.289732 0)
(-8.2652 -0.227275 0)
(-8.27379 -0.268867 0)
(-7.80722 -0.17846 0)
(-7.81876 -0.214132 0)
(-7.45265 -0.174123 0)
(-7.45841 -0.208904 0)
(-7.2241 -0.196693 0)
(-7.22392 -0.206863 0)
(-7.0958 -0.159961 0)
(-7.09926 -0.148616 0)
(-7.02975 -0.129224 0)
(-7.20382 -0.0560186 0)
(-7.14472 -0.0399448 0)
(-7.52716 0.117197 0)
(-7.464 0.0667843 0)
(-8.08137 0.249515 0)
(-8.03871 0.158361 0)
(-8.87752 0.422492 0)
(-8.87501 0.305021 0)
(-9.93358 0.62658 0)
(-9.9745 0.476123 0)
(-11.2547 0.812866 0)
(-11.2827 0.656776 0)
(-12.6903 0.932403 0)
(-12.7112 0.786128 0)
(-14.1344 0.972351 0)
(-14.147 0.860093 0)
(-15.4112 0.950024 0)
(-15.4488 0.893547 0)
(-16.3632 0.803666 0)
(-16.4263 0.704001 0)
(-16.8456 0.509129 0)
(-16.9468 0.307927 0)
(-17.0635 0.122698 0)
(-17.0284 -0.0482948 0)
(-17.0082 -0.192297 0)
(-16.5481 -0.315872 0)
(-16.5178 -0.320666 0)
(-15.494 -0.412805 0)
(-15.4853 -0.388157 0)
(-14.1794 -0.540678 0)
(-14.1275 -0.549228 0)
(-12.6503 -0.769495 0)
(-12.4108 -0.79562 0)
(-11.0643 -0.763352 0)
(-10.7521 -0.553551 0)
(-9.70593 -0.613223 0)
(-9.51063 -0.660652 0)
(-8.31571 -0.891177 0)
(-7.97983 -0.851813 0)
(-6.8185 -0.840697 0)
(-6.48572 -0.79088 0)
(-5.44224 -0.76441 0)
(-5.17213 -0.680216 0)
(-4.17376 -0.829232 0)
(-3.84581 -0.676521 0)
(-3.00098 -0.809766 0)
(-2.6029 -0.723608 0)
(-1.86231 -0.763131 0)
(-1.4579 -0.588992 0)
(-0.891076 -0.568443 0)
(-0.63422 -0.470248 0)
(-0.189663 -0.442799 0)
(-0.0625971 -0.299831 0)
(0.355635 -0.277424 0)
(0.396856 -0.167014 0)
(0.752601 -0.16245 0)
(0.751758 -0.0952809 0)
(0.966715 -0.0752299 0)
(0.960737 -0.048025 0)
(1.04583 -0.0209173 0)
(1.04194 -0.010145 0)
(1.04373 0.00218151 0)
(0.980278 0.0200768 0)
(0.98347 0.0340898 0)
(0.849447 0.00803392 0)
(0.910378 0.0356444 0)
(0.719492 0.0362195 0)
(0.774753 0.084956 0)
(0.526756 0.0830881 0)
(0.527584 0.102155 0)
(0.279479 0.0513437 0)
(0.29265 0.0673601 0)
(0.106024 0.0306661 0)
(0.107428 0.0361183 0)
(-0.00467791 0.0543364 0)
(-0.0276353 0.103808 0)
(-0.165476 0.153085 0)
(-0.25483 0.204126 0)
(-0.46007 0.18947 0)
(-0.597857 0.287264 0)
(-0.888692 0.175655 0)
(-0.992054 0.229892 0)
(-1.31651 0.220519 0)
(-1.43738 0.240057 0)
(-1.81259 0.266672 0)
(-1.95404 0.280493 0)
(-2.4066 0.279647 0)
(-2.52432 0.284041 0)
(-3.01323 0.269352 0)
(-3.10688 0.290258 0)
(-3.60707 0.281572 0)
(-3.68764 0.304507 0)
(-4.14893 0.289784 0)
(-4.21277 0.303273 0)
(-4.55612 0.251638 0)
(-4.60353 0.246349 0)
(-4.75429 0.149209 0)
(-4.77791 0.0803363 0)
(-4.83629 -0.0175956 0)
(-4.82583 -0.0765228 0)
(-4.76674 -0.239131 0)
(-4.74334 -0.289966 0)
(-4.33782 -0.482442 0)
(-4.2459 -0.465209 0)
(-3.53726 -0.729886 0)
(-3.23805 -0.671741 0)
(-2.47453 -0.789666 0)
(-2.11362 -0.590213 0)
(-1.41476 -0.727405 0)
(-1.09861 -0.546277 0)
(-0.588328 -0.590074 0)
(-0.399223 -0.421826 0)
(0.0126822 -0.344273 0)
(0.0554932 -0.256728 0)
(0.736392 -0.37145 0)
(0.74094 -0.287129 0)
(1.47507 -0.323611 0)
(1.37926 -0.251444 0)
(2.18355 -0.324955 0)
(2.00904 -0.228064 0)
(2.79592 -0.30748 0)
(2.64484 -0.221654 0)
(3.30713 -0.244377 0)
(3.17856 -0.178895 0)
(3.64036 -0.138725 0)
(3.56196 -0.121696 0)
(3.75564 -0.033511 0)
(3.72223 -0.0258787 0)
(3.76614 0.0158678 0)
(3.63805 -0.00396821 0)
(3.63779 0.0929696 0)
(3.41573 0.0465463 0)
(3.39071 0.171262 0)
(3.0124 0.0942446 0)
(3.02715 0.207145 0)
(2.47602 0.119659 0)
(2.61606 0.222039 0)
(1.86868 0.138174 0)
(2.16186 0.270388 0)
(1.28903 0.124688 0)
(1.53115 0.216075 0)
(0.752646 -0.0038132 0)
(1.10768 0.227431 0)
(0.367842 0.125743 0)
(0.416816 0.303553 0)
(-0.132255 0.175922 0)
(-0.165255 0.278052 0)
(-0.53132 0.321664 0)
(-0.716821 0.511607 0)
(-1.28105 0.27001 0)
(-1.3773 0.335585 0)
(-1.83044 0.296382 0)
(-1.95106 0.369866 0)
(-2.43683 0.210622 0)
(-2.48756 0.203647 0)
(-2.88464 0.228984 0)
(-2.97102 0.27405 0)
(-3.45859 0.186256 0)
(-3.49438 0.155735 0)
(-3.9771 0.164966 0)
(-3.98773 0.180975 0)
(-4.39005 0.206023 0)
(-4.39732 0.174831 0)
(-4.71679 0.183666 0)
(-4.73311 0.195433 0)
(-4.96251 0.186569 0)
(-4.98446 0.160365 0)
(-5.08496 0.117976 0)
(-5.11062 0.0797791 0)
(-5.14419 0.0382308 0)
(-5.15211 0.0156288 0)
(-5.12629 -0.0114819 0)
(-5.11273 -0.0439688 0)
(-5.0065 -0.0677349 0)
(-4.98951 -0.070132 0)
(-4.78637 -0.0894253 0)
(-4.76767 -0.0894016 0)
(-4.5058 -0.129155 0)
(-4.47503 -0.14326 0)
(-4.17624 -0.174516 0)
(-4.12611 -0.166284 0)
(-3.79729 -0.200669 0)
(-3.75958 -0.198291 0)
(-3.40437 -0.275245 0)
(-3.35102 -0.262615 0)
(-2.90353 -0.34908 0)
(-2.80274 -0.316831 0)
(-2.35939 -0.305117 0)
(-2.268 -0.236903 0)
(-1.91421 -0.299523 0)
(-1.8088 -0.279288 0)
(-1.44605 -0.324581 0)
(-1.32216 -0.227156 0)
(-0.995856 -0.346885 0)
(-0.841817 -0.244159 0)
(-0.608367 -0.240731 0)
(-0.518621 -0.184371 0)
(-0.298048 -0.213428 0)
(-0.23519 -0.170446 0)
(-0.0323116 -0.145283 0)
(-0.0077278 -0.109035 0)
(0.213505 -0.100539 0)
(0.217424 -0.0645471 0)
(0.388361 -0.0528187 0)
(0.385789 -0.0458466 0)
(0.509615 -0.0384498 0)
(0.505591 -0.0310208 0)
(0.596687 -0.0270079 0)
(0.590755 -0.0175943 0)
(0.64357 -0.0113361 0)
(0.639468 -0.00727841 0)
(0.657722 -0.00113386 0)
(0.638126 0.00329567 0)
(0.648156 0.0111422 0)
(0.586212 0.0221829 0)
(0.595489 0.0385972 0)
(0.470891 0.0406171 0)
(0.480721 0.0742309 0)
(0.283627 0.0734366 0)
(0.274958 0.123985 0)
(0.0424698 0.132976 0)
(0.00652338 0.202231 0)
(-0.242253 0.193968 0)
(-0.308933 0.212345 0)
(-0.549952 0.188302 0)
(-0.645196 0.251341 0)
(-0.881122 0.146161 0)
(-0.938256 0.197841 0)
(-1.18038 0.136658 0)
(-1.22455 0.156714 0)
(-1.43767 0.124852 0)
(-1.47669 0.142938 0)
(-1.65085 0.0961425 0)
(-1.67381 0.0867836 0)
(-1.8239 0.0619756 0)
(-1.84814 0.0642022 0)
(-1.99037 0.037838 0)
(-1.99814 0.0225417 0)
(-2.12674 -0.00420503 0)
(-2.14248 -0.00349944 0)
(-2.27689 0.028205 0)
(-2.2892 0.00553873 0)
(-2.42296 0.0335476 0)
(-2.43696 0.0177289 0)
(-2.58538 0.0276815 0)
(-2.59384 0.00404023 0)
(-2.72276 0.0248083 0)
(-2.72836 0.0141524 0)
(-2.90745 0.0480095 0)
(-2.92193 0.0238005 0)
(-3.12876 0.0522404 0)
(-3.13675 0.0334686 0)
(-3.35102 0.091122 0)
(-3.36324 0.0596959 0)
(-3.59732 0.112847 0)
(-3.60717 0.0836335 0)
(-3.83846 0.125808 0)
(-3.84761 0.096897 0)
(-4.06095 0.128436 0)
(-4.06954 0.105772 0)
(-4.26114 0.11986 0)
(-4.2658 0.106361 0)
(-4.42084 0.101499 0)
(-4.42692 0.0832395 0)
(-4.53253 0.0763943 0)
(-4.55002 0.0578894 0)
(-4.60004 0.0345751 0)
(-4.61813 0.0155385 0)
(-4.63345 -0.00438038 0)
(-4.62324 -0.0272698 0)
(-4.61902 -0.0520871 0)
(-4.53994 -0.0559925 0)
(-4.53685 -0.0624253 0)
(-4.38464 -0.0238186 0)
(-4.38241 -0.0296055 0)
(-4.18883 -0.0257656 0)
(-4.18787 -0.029849 0)
(-3.94893 -0.096879 0)
(-3.92939 -0.11957 0)
(-3.63801 -0.213186 0)
(-3.59384 -0.187426 0)
(-3.32081 -0.17888 0)
(-3.30182 -0.181424 0)
(-2.9382 -0.290089 0)
(-2.86084 -0.250557 0)
(-2.4959 -0.259998 0)
(-2.42584 -0.233209 0)
(-2.09615 -0.240584 0)
(-2.04085 -0.211779 0)
(-1.72873 -0.263932 0)
(-1.64855 -0.201988 0)
(-1.38014 -0.263468 0)
(-1.2785 -0.203398 0)
(-1.05378 -0.238212 0)
(-0.955674 -0.154448 0)
(-0.829574 -0.149885 0)
(-0.76654 -0.127481 0)
(-0.643441 -0.132341 0)
(-0.5909 -0.118758 0)
(-0.482209 -0.110217 0)
(-0.442606 -0.0993955 0)
(-0.346475 -0.0896104 0)
(-0.318902 -0.0800728 0)
(-0.237899 -0.0678969 0)
(-0.221242 -0.0605744 0)
(-0.15398 -0.0503635 0)
(-0.145626 -0.0451807 0)
(-0.0882017 -0.0393105 0)
(-0.0835325 -0.0366874 0)
(-0.0350326 -0.0301681 0)
(-0.0326896 -0.0283124 0)
(0.00855145 -0.0237679 0)
(0.0101984 -0.022833 0)
(0.0446205 -0.0177156 0)
(0.046347 -0.0168795 0)
(0.0733403 -0.00709109 0)
(0.0745632 -0.00465908 0)
(0.094994 0.00256682 0)
(0.0956979 0.00439741 0)
(0.10117 0.0087054 0)
(0.10209 0.0117219 0)
(0.089865 0.0190319 0)
(0.0891061 0.0254191 0)
(0.0565613 0.029846 0)
(0.0551591 0.0388894 0)
(0.016702 0.0389802 0)
(0.0134333 0.0425695 0)
(-0.0284003 0.0489107 0)
(-0.0381927 0.0622913 0)
(-0.0984673 0.062076 0)
(-0.109278 0.069918 0)
(-0.177519 0.0625793 0)
(-0.183088 0.0679262 0)
(-0.251669 0.0554085 0)
(-0.252185 0.0561068 0)
(-0.310453 0.0556379 0)
(-0.317315 0.0657512 0)
(-0.378337 0.0623297 0)
(-0.386881 0.0691664 0)
(-0.45471 0.0654159 0)
(-0.46101 0.0691878 0)
(-0.534596 0.0555164 0)
(-0.542966 0.0563779 0)
(-0.60306 0.0630995 0)
(-0.627975 0.0844884 0)
(-0.695502 0.0608641 0)
(-0.704725 0.066777 0)
(-0.763462 0.0473707 0)
(-0.769529 0.0491166 0)
(-0.811922 0.0346194 0)
(-0.817196 0.0337786 0)
(-0.844472 0.0243988 0)
(-0.851351 0.0215307 0)
(-0.868758 0.0164222 0)
(-0.879134 0.0134591 0)
(-0.892291 0.0111355 0)
(-0.901695 0.00790741 0)
(-0.909365 0.00391489 0)
(-0.913844 0.000168721 0)
(-0.91565 -0.00340129 0)
(-0.914634 -0.00625332 0)
(-0.911777 -0.00843768 0)
(-0.90745 -0.0106305 0)
(-0.902969 -0.0129874 0)
(-0.896283 -0.0170624 0)
(-0.892715 -0.0202037 0)
(-0.881255 -0.0228332 0)
(-0.87821 -0.0230866 0)
(-0.862857 -0.024412 0)
(-0.859852 -0.0240034 0)
(-0.844304 -0.027015 0)
(-0.839534 -0.0248787 0)
(-0.82538 -0.0345371 0)
(-0.814589 -0.0283829 0)
(-0.800197 -0.0307867 0)
(-0.791816 -0.0323674 0)
(-0.774753 -0.035489 0)
(-0.764538 -0.0357712 0)
(-0.7477 -0.0369544 0)
(-0.734547 -0.033953 0)
(-0.724139 -0.030811 0)
(-0.712137 -0.0257139 0)
(-0.708461 -0.0221709 0)
(-0.698833 -0.0217684 0)
(-0.697586 -0.0199819 0)
(-0.689116 -0.0200842 0)
(-0.687868 -0.0199718 0)
(-0.681641 -0.017287 0)
(-0.681379 -0.0157058 0)
(-0.678643 -0.0140989 0)
(-0.677813 -0.0156217 0)
(-0.673699 -0.0171288 0)
(-0.671709 -0.017243 0)
(-0.66686 -0.0160294 0)
(-0.665241 -0.0138114 0)
(-0.663857 -0.0108862 0)
(-0.663936 -0.00852573 0)
(-0.665639 -0.00598804 0)
(-0.667888 -0.00409321 0)
(-0.672446 -0.00210222 0)
(-0.675339 -0.00054259 0)
(-0.683005 0.000812501 0)
(-0.685776 0.00166997 0)
(-0.695462 0.00229007 0)
(-0.697928 0.00298096 0)
(-0.708107 0.00241527 0)
(-0.710317 0.00302045 0)
(-0.718774 0.00132458 0)
(-0.720989 0.00220059 0)
(-0.726414 0.00022647 0)
(-0.728867 0.0011598 0)
(-0.731056 -0.00054131 0)
(-0.733402 0.000389119 0)
(-0.734158 -0.000475754 0)
(-0.7348 -0.000796632 0)
(-0.735128 -0.0007718 0)
(-0.735455 -0.00066406 0)
(-0.732052 -0.000750199 0)
(-0.0549342 -0.0071931 0)
(-0.352965 0.0831148 0)
(-0.449555 0.0716429 0)
(-1.01081 0.216694 0)
(-1.02661 0.16181 0)
(-1.74818 0.309704 0)
(-1.76358 0.198709 0)
(-2.5042 0.35064 0)
(-2.51878 0.184521 0)
(-3.27956 0.37574 0)
(-3.26469 0.233517 0)
(-4.02135 0.364311 0)
(-3.99036 0.249252 0)
(-4.74177 0.379535 0)
(-4.71803 0.265815 0)
(-5.44033 0.363165 0)
(-5.40299 0.26085 0)
(-6.09868 0.354049 0)
(-6.07161 0.276617 0)
(-6.73248 0.325163 0)
(-6.69528 0.241492 0)
(-7.34482 0.31961 0)
(-7.30334 0.247602 0)
(-7.9322 0.326801 0)
(-7.90296 0.266921 0)
(-8.52781 0.372296 0)
(-8.51213 0.275152 0)
(-9.13546 0.370619 0)
(-9.10869 0.27639 0)
(-9.73663 0.374605 0)
(-9.74297 0.314941 0)
(-10.3722 0.39969 0)
(-10.3601 0.314358 0)
(-10.9664 0.399161 0)
(-10.9567 0.373251 0)
(-11.5718 0.458373 0)
(-11.5739 0.424204 0)
(-12.1613 0.46629 0)
(-12.1639 0.415242 0)
(-12.7031 0.462454 0)
(-12.7108 0.429703 0)
(-13.2018 0.446916 0)
(-13.208 0.408876 0)
(-13.6267 0.383398 0)
(-13.631 0.343626 0)
(-13.9341 0.243584 0)
(-13.9613 0.183839 0)
(-14.1531 0.0658552 0)
(-14.1961 -0.0178263 0)
(-14.2898 -0.116851 0)
(-14.3182 -0.189855 0)
(-14.3309 -0.242798 0)
(-14.2854 -0.292044 0)
(-14.2791 -0.303766 0)
(-14.0808 -0.359328 0)
(-14.0773 -0.358106 0)
(-13.7451 -0.487196 0)
(-13.7412 -0.509957 0)
(-13.281 -0.546642 0)
(-13.2665 -0.536479 0)
(-12.7571 -0.516249 0)
(-12.7531 -0.524994 0)
(-12.1331 -0.570869 0)
(-12.1304 -0.582877 0)
(-11.4684 -0.643081 0)
(-11.4476 -0.668623 0)
(-10.7861 -0.672976 0)
(-10.767 -0.698804 0)
(-10.1283 -0.628478 0)
(-10.1145 -0.653461 0)
(-9.53863 -0.571548 0)
(-9.52658 -0.601617 0)
(-8.99881 -0.494095 0)
(-8.9955 -0.509815 0)
(-8.5413 -0.38656 0)
(-8.52559 -0.412777 0)
(-8.22829 -0.324805 0)
(-8.21744 -0.328849 0)
(-8.12422 -0.295916 0)
(-8.17142 -0.256345 0)
(-8.15039 -0.208868 0)
(-8.37009 -0.0854897 0)
(-8.35491 -0.0492647 0)
(-8.82217 0.164125 0)
(-8.79903 0.173945 0)
(-9.43833 0.43279 0)
(-9.44827 0.383419 0)
(-10.3128 0.711845 0)
(-10.3314 0.638962 0)
(-11.3713 1.02118 0)
(-11.419 0.929373 0)
(-12.5864 1.31449 0)
(-12.6461 1.21333 0)
(-13.8374 1.47823 0)
(-13.9087 1.38621 0)
(-15.0645 1.53922 0)
(-15.1269 1.44744 0)
(-16.1568 1.46996 0)
(-16.2137 1.40363 0)
(-16.9412 1.24003 0)
(-17.0163 1.17015 0)
(-17.3478 0.857729 0)
(-17.4418 0.685447 0)
(-17.4929 0.389155 0)
(-17.5572 0.117378 0)
(-17.4999 -0.117255 0)
(-17.4434 -0.482861 0)
(-17.3443 -0.64871 0)
(-16.7215 -1.10777 0)
(-16.618 -1.10353 0)
(-15.4612 -1.59899 0)
(-15.2266 -1.39523 0)
(-13.7927 -2.11584 0)
(-13.4163 -1.77297 0)
(-11.9247 -2.31661 0)
(-11.4448 -1.75154 0)
(-10.3542 -1.7134 0)
(-10.0307 -1.26699 0)
(-8.78622 -1.97462 0)
(-8.5571 -1.67606 0)
(-7.1932 -2.1585 0)
(-6.90673 -1.62749 0)
(-5.69122 -1.93404 0)
(-5.48597 -1.44137 0)
(-4.25598 -1.71615 0)
(-4.15263 -1.49729 0)
(-2.98597 -1.5427 0)
(-2.91505 -1.35509 0)
(-1.81081 -1.54185 0)
(-1.6897 -1.29197 0)
(-0.843717 -1.21725 0)
(-0.737041 -0.976698 0)
(-0.00660009 -1.00399 0)
(0.049917 -0.775416 0)
(0.666082 -0.68617 0)
(0.687638 -0.547638 0)
(1.26899 -0.441753 0)
(1.26333 -0.338093 0)
(1.68213 -0.251088 0)
(1.66928 -0.190463 0)
(1.90798 -0.121431 0)
(1.90255 -0.0764824 0)
(1.95737 -0.00928691 0)
(1.92491 0.0328511 0)
(1.92497 0.0791308 0)
(1.76265 0.0813523 0)
(1.79942 0.109684 0)
(1.52379 0.0755816 0)
(1.62135 0.131969 0)
(1.29983 0.174801 0)
(1.34413 0.258236 0)
(0.931696 0.226609 0)
(0.94554 0.255338 0)
(0.537986 0.161862 0)
(0.575544 0.189909 0)
(0.266921 0.102034 0)
(0.295377 0.123108 0)
(0.109452 0.192067 0)
(0.115989 0.298699 0)
(-0.146451 0.360092 0)
(-0.170897 0.444393 0)
(-0.561232 0.409241 0)
(-0.565091 0.443071 0)
(-0.975947 0.442204 0)
(-1.02045 0.55269 0)
(-1.45943 0.488272 0)
(-1.54744 0.665039 0)
(-2.02009 0.584213 0)
(-2.14179 0.757992 0)
(-2.65532 0.590949 0)
(-2.77669 0.769523 0)
(-3.28297 0.612233 0)
(-3.4022 0.774133 0)
(-3.8705 0.600821 0)
(-3.97182 0.732522 0)
(-4.36212 0.518989 0)
(-4.41916 0.571869 0)
(-4.6755 0.327076 0)
(-4.69151 0.280747 0)
(-4.78086 0.0948052 0)
(-4.81502 0.00905209 0)
(-4.76096 -0.219151 0)
(-4.78483 -0.289741 0)
(-4.3715 -0.764628 0)
(-4.36137 -0.735196 0)
(-3.54841 -1.21913 0)
(-3.52952 -1.17083 0)
(-2.49713 -1.52279 0)
(-2.37626 -1.29134 0)
(-1.48179 -1.29259 0)
(-1.41755 -1.11127 0)
(-0.520694 -1.23091 0)
(-0.388518 -1.04469 0)
(0.335079 -0.897006 0)
(0.353817 -0.628869 0)
(1.24293 -0.867641 0)
(1.26398 -0.718627 0)
(2.33999 -0.910119 0)
(2.2533 -0.68851 0)
(3.40231 -0.834581 0)
(3.19033 -0.644134 0)
(4.3231 -0.758179 0)
(4.13823 -0.643837 0)
(5.11672 -0.629591 0)
(4.96649 -0.541777 0)
(5.7144 -0.449451 0)
(5.59179 -0.369873 0)
(6.07871 -0.240047 0)
(5.96294 -0.169055 0)
(6.24032 -0.0607178 0)
(6.10562 0.00129217 0)
(6.16533 0.110904 0)
(5.96218 0.105545 0)
(5.95962 0.268168 0)
(5.58675 0.252496 0)
(5.56804 0.448235 0)
(4.94804 0.354086 0)
(5.02955 0.515556 0)
(4.11233 0.464546 0)
(4.36238 0.583724 0)
(3.13957 0.419339 0)
(3.6954 0.63197 0)
(2.32731 0.519464 0)
(2.55749 0.620007 0)
(1.28237 0.244283 0)
(1.86019 0.661008 0)
(0.725961 0.540513 0)
(0.776707 0.682268 0)
(-0.0771602 0.419561 0)
(0.10755 0.823042 0)
(-0.675277 0.723827 0)
(-0.72244 0.847598 0)
(-1.44804 0.557946 0)
(-1.40686 0.761199 0)
(-1.988 0.624173 0)
(-2.08486 0.736632 0)
(-2.63314 0.431255 0)
(-2.71328 0.658763 0)
(-3.15532 0.576338 0)
(-3.3065 0.722134 0)
(-3.85902 0.495128 0)
(-3.97086 0.567285 0)
(-4.39319 0.465731 0)
(-4.44088 0.483961 0)
(-4.72215 0.392711 0)
(-4.77446 0.426675 0)
(-4.99119 0.359827 0)
(-5.01943 0.347477 0)
(-5.10793 0.238836 0)
(-5.13683 0.205506 0)
(-5.1712 0.127532 0)
(-5.1873 0.0737193 0)
(-5.19381 0.00530276 0)
(-5.17305 -0.0396704 0)
(-5.12989 -0.122332 0)
(-5.11581 -0.157478 0)