/*--------------------------------*- C++ -*----------------------------------*\
| =========                 |                                                 |
| \\      /  F ield         | OpenFOAM: The Open Source CFD Toolbox           |
|  \\    /   O peration     | Version:  v1812                                 |
|   \\  /    A nd           | Web:      www.OpenFOAM.com                      |
|    \\/     M anipulation  |                                                 |
\*---------------------------------------------------------------------------*/
FoamFile
{
    version     2.0;
    format      ascii;
    class       volScalarField;
    location    "0.012";
    object      p;
}
// * * * * * * * * * * * * * * * * * * * * * * * * * * * * * * * * * * * * * //

dimensions      [1 -1 -2 0 0 0 0];


internalField   nonuniform List<scalar> 
800
(
0.01
0.01
0.01
0.01
0.01
0.01
0.01
0.01
0.01
0.01
0.01
0.01
0.01
0.01
0.01
0.01
0.01
0.01
0.01
0.01
0.01
0.01
0.01
0.01
0.01
0.01
0.01
0.01
0.01
0.01
0.01
0.01
0.01
0.01
0.01
0.01
0.01
0.01
0.01
0.01
0.01
0.01
0.01
0.01
0.01
0.01
0.01
0.01
0.01
0.01
0.01
0.01
0.01
0.01
0.01
0.01
0.01
0.01
0.01
0.01
0.01
0.01
0.01
0.01
0.01
0.01
0.01
0.01
0.01
0.01
0.01
0.01
0.01
0.01
0.01
0.01
0.01
0.01
0.01
0.01
0.01
0.01
0.01
0.01
0.01
0.01
0.01
0.01
0.01
0.01
0.01
0.01
0.01
0.01
0.01
0.01
0.01
0.01
0.01
0.01
0.01
0.01
0.01
0.01
0.01
0.01
0.01
0.01
0.01
0.01
0.01
0.01
0.01
0.01
0.01
0.01
0.01
0.01
0.01
0.01
0.01
0.01
0.01
0.01
0.01
0.01
0.01
0.01
0.01
0.01
0.01
0.01
0.01
0.01
0.01
0.01
0.01
0.01
0.01
0.01
0.01
0.01
0.01
0.01
0.01
0.01
0.01
0.01
0.01
0.01
0.01
0.01
0.01
0.01
0.01
0.01
0.01
0.01
0.01
0.01
0.01
0.01
0.01
0.01
0.01
0.01
0.01
0.01
0.01
0.01
0.01
0.01
0.01
0.01
0.01
0.01
0.01
0.01
0.01
0.01
0.01
0.01
0.01
0.01
0.01
0.01
0.01
0.01
0.01
0.01
0.01
0.01
0.01
0.01
0.01
0.01
0.01
0.01
0.01
0.01
0.01
0.01
0.01
0.01
0.01
0.01
0.01
0.01
0.01
0.01
0.01
0.01
0.01
0.01
0.01
0.01
0.01
0.01
0.01
0.01
0.01
0.01
0.01
0.01
0.01
0.01
0.01
0.01
0.01
0.01
0.01
0.01
0.01
0.01
0.01
0.01
0.01
0.01
0.01
0.01
0.01
0.01
0.01
0.01
0.01
0.01
0.01
0.01
0.01
0.01
0.01
0.01
0.01
0.01
0.01
0.01
0.01
0.01
0.01
0.01
0.01
0.01
0.01
0.01
0.01
0.01
0.01
0.01
0.01
0.01
0.01
0.01
0.01
0.01
0.01
0.01
0.01
0.01
0.01
0.01
0.01
0.01
0.01
0.01
0.01
0.01
0.01
0.01
0.01
0.01
0.01
0.01
0.01
0.01
0.01
0.01
0.01
0.01
0.01
0.01
0.01
0.01
0.01
0.01
0.01
0.01
0.01
0.01
0.01
0.01
0.01
0.01
0.01
0.01
0.01
0.01
0.01
0.01
0.01
0.01
0.01
0.01
0.01
0.01
0.01
0.0144305
3.28863
20.144
35.5711
42.6521
45.1943
46.0674
46.3633
46.445
46.4718
46.4508
46.3762
46.2684
46.1641
46.1807
46.3183
46.3324
46.2938
46.2724
46.2579
46.2529
46.2491
46.247
46.2441
46.2422
46.2419
46.242
46.2421
46.2412
46.2403
46.2398
46.2397
46.2398
46.2395
46.2392
46.2383
46.2372
46.2361
46.2353
46.2349
46.2346
46.2352
46.2364
46.2376
46.2385
46.239
46.2393
46.2393
46.2397
46.2407
46.2424
46.2448
46.2483
46.2518
46.2539
46.2544
46.2543
46.253
46.2502
46.2452
46.238
46.2284
46.2168
46.2031
46.1875
46.1694
46.1484
46.1244
46.0985
46.0727
46.0493
46.0292
46.0124
45.9983
45.9874
45.9804
45.9774
45.9768
45.9771
45.9785
45.9818
45.9878
45.9971
46.0101
46.0269
46.0474
46.071
46.0971
46.1249
46.1538
46.1832
46.2129
46.2434
46.2752
46.3086
46.3427
46.3748
46.4015
46.4206
46.4327
46.4404
46.4463
46.4527
46.4623
46.4776
46.4999
46.5262
46.5511
46.5715
46.5888
46.6071
46.6327
46.6748
46.7463
46.8626
47.0373
47.2789
47.5883
47.9595
48.3827
48.8472
49.3434
49.8634
50.4017
50.9542
51.5183
52.092
52.6741
53.2639
53.8608
54.4644
55.0744
55.6906
56.3129
56.9413
57.5756
58.2158
58.8619
59.5138
60.1715
60.8349
61.5042
62.1791
62.8598
63.5461
64.2381
64.9358
65.639
66.3477
67.062
67.7817
68.5067
69.2371
69.9727
70.7134
71.4591
72.2097
72.965
73.725
74.4894
75.258
76.0306
76.807
77.5869
78.37
79.1558
79.9442
80.7345
81.5263
82.3191
83.1122
83.905
84.6966
85.4863
86.2729
87.0555
87.8328
88.6034
89.3659
90.1186
90.8596
91.5869
92.2984
92.9915
93.6639
94.3128
94.9353
95.5286
96.0899
96.6163
97.1052
97.5545
97.9622
98.3273
98.6493
98.9285
99.1662
99.3645
99.5263
99.6553
99.7554
99.8312
99.8868
99.9263
99.9536
99.9718
99.9835
99.9907
99.995
99.9974
99.9987
99.9994
99.9997
99.9999
100
100
100
100
100
100
100
100
100
100
100
100
100
100
100
100
100
100
100
100
100
100
100
100
100
100
100
100
100
100
100
100
100
100
100
100
100
100
100
100
100
100
100
100
100
100
100
100
100
100
100
100
100
100
100
100
100
100
100
100
100
100
100
100
100
100
100
100
100
100
100
100
100
100
100
100
100
100
100
100
100
100
100
100
100
100
100
100
100
100
100
100
100
100
100
100
100
100
100
100
100
100
100
100
100
100
100
100
100
100
100
100
100
100
100
100
100
100
100
100
100
100
100
100
100
100
100
100
100
100
100
100
100
100
100
100
100
100
100
100
100
100
100
100
100
100
100
100
100
100
100
100
100
100
100
100
100
100
100
100
100
100
100
100
100
100
100
100
100
100
100
100
100
100
100
100
100
100
100
100
100
100
100
100
100
100
100
100
100
100
100
100
100
100
100
100
100
100
100
100
100
100
100
100
100
100
100
100
100
100
100
100
100
100
100
100
100
100
100
100
100
100
100
100
100
100
100
100
100
100
100
100
100
100
100
100
100
100
100
100
100
100
100
100
100
100
100
100
100
100
100
100
100
100
100
100
100
100
100
100
100
)
;

boundaryField
{
    sides
    {
        type            zeroGradient;
    }
    empty1
    {
        type            empty;
    }
    empty2
    {
        type            empty;
    }
}


// ************************************************************************* //
