/*--------------------------------*- C++ -*----------------------------------*\
| =========                 |                                                 |
| \\      /  F ield         | OpenFOAM: The Open Source CFD Toolbox           |
|  \\    /   O peration     | Version:  v1812                                 |
|   \\  /    A nd           | Web:      www.OpenFOAM.com                      |
|    \\/     M anipulation  |                                                 |
\*---------------------------------------------------------------------------*/
FoamFile
{
    version     2.0;
    format      ascii;
    class       surfaceScalarField;
    location    "0.012";
    object      phi;
}
// * * * * * * * * * * * * * * * * * * * * * * * * * * * * * * * * * * * * * //

dimensions      [1 0 -1 0 0 0 0];
oriented        oriented;


internalField   nonuniform List<scalar> 
799
(
-2.9189e-22
-2.6296e-21
-3.90448e-21
2.05892e-20
9.11753e-20
8.97528e-20
-1.02454e-19
1.15493e-22
1.37846e-19
-6.45933e-20
-3.63211e-20
1.34071e-19
-1.96648e-20
-9.34411e-20
-1.01293e-19
4.89959e-20
5.95899e-20
-2.82618e-20
7.26473e-20
-2.43284e-20
-1.01765e-19
8.91413e-20
-2.82957e-20
7.35958e-20
-1.09415e-19
5.66846e-20
-6.68366e-21
2.91667e-20
5.89419e-20
1.45871e-21
-9.4047e-22
-1.00853e-19
-1.89647e-20
1.88171e-20
8.32688e-20
-7.23375e-20
-6.0874e-21
6.07112e-22
-3.13455e-20
-8.51461e-20
1.30021e-19
-1.63989e-20
-5.71971e-21
3.38917e-21
-7.13199e-21
1.74504e-20
-1.40823e-20
2.43327e-21
8.92552e-21
5.28615e-20
-9.22171e-20
1.16296e-19
-6.65517e-20
1.86958e-20
7.43497e-20
-9.44123e-20
-1.91435e-20
-2.81566e-20
-2.60981e-20
2.15002e-20
-2.20157e-20
2.14206e-20
-2.32808e-20
2.24174e-20
-5.04375e-21
1.38298e-19
-8.7002e-20
2.21398e-20
4.66136e-20
-8.66472e-20
-4.13738e-20
-3.26187e-20
7.94396e-20
1.39867e-20
5.04874e-21
-1.36487e-19
8.76966e-20
6.68602e-20
-8.67712e-20
-3.66707e-20
1.50305e-20
2.20394e-20
1.101e-19
-1.19346e-19
-1.02797e-19
5.08381e-20
7.52202e-20
-4.27346e-20
6.86782e-20
-4.30221e-22
9.21612e-20
-9.21004e-20
1.77459e-20
-1.11964e-20
1.4858e-20
4.23606e-20
-5.50242e-20
9.94133e-20
-1.15922e-19
-9.0136e-20
7.34904e-20
9.96601e-20
-6.28478e-20
-1.37586e-19
-3.45589e-20
8.01524e-20
2.24371e-19
-8.40944e-20
-6.31477e-20
9.41611e-20
2.33627e-20
-7.05109e-20
-1.05815e-19
-4.90181e-20
3.03783e-20
1.32706e-19
-1.12015e-19
-4.39273e-20
7.99601e-20
2.32535e-19
-9.1426e-20
-4.95707e-20
7.48742e-20
-5.35865e-20
-1.35238e-19
-3.59021e-20
7.68812e-20
2.23075e-19
-6.93384e-20
-2.57319e-20
1.83695e-20
1.39608e-20
-1.08415e-19
6.11589e-20
-2.52916e-20
7.2285e-20
-6.6136e-20
-1.04169e-19
-4.45572e-20
7.97875e-20
2.37168e-19
-1.16347e-19
-1.1544e-19
7.45439e-20
1.21669e-19
-1.42788e-19
4.16684e-20
6.6093e-20
-5.63935e-20
-1.16167e-19
-4.69363e-20
5.71791e-20
1.64816e-19
-3.32513e-20
-8.95404e-20
5.05462e-20
1.59485e-19
-7.61061e-20
-6.04505e-20
-1.85194e-19
5.47242e-20
5.31111e-20
2.11358e-20
-4.86668e-20
7.49315e-20
-4.56674e-20
-1.46659e-19
5.81758e-20
-2.34604e-20
1.31787e-19
-4.65546e-20
-1.08444e-19
1.45168e-19
-2.35963e-20
-6.20825e-20
3.09544e-20
-9.32741e-20
1.32688e-19
-2.8133e-20
-7.60094e-20
3.73834e-20
-1.04233e-19
1.5997e-19
-3.93398e-20
-1.9914e-20
7.78249e-20
-7.55418e-20
-3.99862e-20
-4.59536e-20
7.44035e-20
1.19013e-19
-1.79707e-20
-2.89867e-20
-6.43379e-20
5.1948e-20
-3.88069e-20
-2.29943e-20
2.1783e-20
6.78749e-20
-7.05311e-20
2.06727e-19
-7.80052e-20
-4.16953e-20
5.6287e-20
2.71902e-20
-5.27429e-20
-1.03896e-20
-7.69657e-22
-2.45033e-20
3.01018e-20
-4.67984e-20
5.66737e-20
3.08479e-20
-4.46735e-20
-5.31761e-20
4.87252e-20
-2.53271e-20
3.79424e-20
-4.64461e-20
5.11833e-20
1.60997e-20
-3.41418e-20
-3.68177e-20
7.23391e-20
-3.22697e-20
-3.39748e-20
4.20428e-20
2.25809e-20
-4.14978e-20
-8.97004e-20
-3.0254e-20
1.4038e-19
2.12562e-20
-2.40232e-20
3.19402e-20
-3.54127e-20
5.17239e-20
-1.0088e-19
-6.82638e-20
8.06647e-20
-1.16082e-19
-2.75646e-21
8.18394e-20
1.68936e-19
4.84791e-21
2.80392e-20
-3.79351e-20
-4.22689e-20
7.79799e-20
-7.65462e-21
-7.30732e-20
-2.76962e-20
1.54861e-19
-1.8245e-19
7.41325e-20
4.01986e-20
-3.92517e-20
3.5646e-20
-2.51965e-20
5.63709e-20
1.06483e-20
-3.39689e-20
-2.07783e-20
1.24392e-19
-1.71967e-19
6.02151e-20
-3.73356e-20
4.03911e-20
-9.06479e-21
1.35289e-19
-1.35196e-19
2.53461e-20
6.28354e-21
-1.62022e-19
1.02099e-19
-1.77975e-20
5.73427e-20
-2.0296e-20
-2.11056e-19
1.30348e-20
-2.40664e-20
9.37767e-20
4.01466e-20
-6.23423e-20
7.15691e-20
1.3127e-20
-7.08667e-21
1.56859e-20
-3.18205e-20
-3.39426e-20
3.81588e-20
-2.83721e-20
3.13239e-20
3.99951e-21
1.17108e-19
-1.03316e-19
-2.30237e-20
-6.22168e-20
2.32392e-20
-1.15959e-19
1.41555e-19
3.03217e-20
-9.35592e-20
-8.3523e-20
1.10463e-19
5.05611e-20
-9.36316e-20
-9.19158e-20
1.305e-19
1.74685e-19
-1.55274e-19
5.69714e-20
3.73427e-20
-4.41814e-20
-5.26585e-20
5.03591e-20
-1.73832e-20
5.76094e-20
-2.41458e-20
-2.20466e-19
2.8709e-20
7.80139e-20
1.20079e-19
-2.51011e-14
-3.19767e-08
-9.02874e-05
-0.00338627
-0.00911492
-0.0125012
-0.0138855
-0.0144109
-0.0146085
-0.0146751
-0.0146861
-0.0145918
-0.0141529
-0.0131567
-0.0115083
-0.00936803
-0.00715418
-0.00528058
-0.00391413
-0.00299911
-0.00240789
-0.00203041
-0.0017912
-0.00164116
-0.00154852
-0.00149259
-0.00145978
-0.00144116
-0.00143101
-0.00142572
-0.00142312
-0.00142191
-0.0014214
-0.00142122
-0.00142118
-0.00142119
-0.00142126
-0.00142136
-0.00142145
-0.00142153
-0.0014216
-0.00142165
-0.0014217
-0.00142173
-0.00142175
-0.00142177
-0.00142179
-0.00142182
-0.00142184
-0.00142187
-0.00142189
-0.00142189
-0.00142188
-0.00142186
-0.00142182
-0.0014218
-0.0014218
-0.00142181
-0.00142184
-0.00142189
-0.00142196
-0.00142208
-0.00142222
-0.00142241
-0.00142262
-0.00142287
-0.00142314
-0.00142346
-0.00142383
-0.00142424
-0.00142466
-0.00142507
-0.00142542
-0.00142572
-0.00142597
-0.00142618
-0.00142633
-0.00142641
-0.00142644
-0.00142646
-0.00142646
-0.00142643
-0.00142637
-0.00142626
-0.00142609
-0.00142587
-0.00142558
-0.00142524
-0.00142486
-0.00142444
-0.001424
-0.00142354
-0.00142309
-0.00142262
-0.00142214
-0.00142163
-0.00142109
-0.00142057
-0.0014201
-0.00141974
-0.0014195
-0.00141935
-0.00141926
-0.00141917
-0.00141906
-0.00141888
-0.00141859
-0.00141819
-0.00141777
-0.0014174
-0.00141711
-0.00141685
-0.00141653
-0.00141605
-0.00141521
-0.00141377
-0.00141148
-0.00140813
-0.00140361
-0.00139794
-0.00139124
-0.00138364
-0.00137531
-0.00136637
-0.00135691
-0.00134702
-0.00133674
-0.0013261
-0.00131513
-0.00130384
-0.00129223
-0.00128031
-0.00126809
-0.00125556
-0.00124274
-0.00122961
-0.00121618
-0.00120244
-0.0011884
-0.00117405
-0.00115939
-0.00114443
-0.00112916
-0.00111357
-0.00109767
-0.00108146
-0.00106493
-0.00104809
-0.00103093
-0.00101345
-0.000995662
-0.000977552
-0.000959125
-0.000940383
-0.000921325
-0.000901953
-0.000882269
-0.000862274
-0.000841972
-0.000821366
-0.00080046
-0.000779257
-0.000757765
-0.000735989
-0.000713937
-0.000691617
-0.000669039
-0.000646214
-0.000623155
-0.000599877
-0.000576397
-0.000552734
-0.000528908
-0.000504946
-0.000480874
-0.000456723
-0.000432529
-0.000408332
-0.000384176
-0.000360111
-0.000336192
-0.000312483
-0.00028905
-0.000265969
-0.000243324
-0.000221202
-0.000199699
-0.000178915
-0.000158957
-0.000139929
-0.000121938
-0.000105086
-8.94662e-05
-7.51581e-05
-6.2224e-05
-5.07028e-05
-4.06065e-05
-3.19166e-05
-2.45831e-05
-1.8526e-05
-1.36382e-05
-9.79165e-06
-6.84465e-06
-4.65054e-06
-3.06584e-06
-1.95746e-06
-1.20806e-06
-7.1917e-07
-4.12021e-07
-2.26585e-07
-1.19256e-07
-5.9863e-08
-2.85408e-08
-1.2859e-08
-5.44064e-09
-2.14439e-09
-7.79102e-10
-2.57232e-10
-7.56424e-11
-1.923e-11
-4.03178e-12
-6.42284e-13
-6.61165e-14
-3.1722e-15
-3.28982e-17
5.47556e-18
6.69058e-18
6.05493e-18
4.37392e-18
4.55265e-18
4.14752e-18
4.45975e-18
5.2668e-18
3.60292e-18
3.48292e-18
2.09361e-18
2.1988e-18
1.46267e-18
1.67627e-18
-3.60089e-18
-1.80802e-18
-1.1445e-18
-3.30675e-18
-2.09741e-18
-4.24737e-18
-4.23937e-18
-4.54315e-18
-5.13655e-18
-7.16223e-18
-2.25554e-18
-3.05719e-18
-1.76105e-18
6.62356e-19
-7.2068e-19
7.96652e-19
-1.35009e-18
1.61652e-18
1.75186e-18
1.50449e-18
1.87115e-18
2.401e-18
1.40226e-18
3.11089e-19
1.22949e-18
1.33157e-18
3.25854e-18
-8.59415e-19
-1.2376e-18
4.20983e-19
-1.32791e-18
1.87285e-18
8.58e-19
1.44121e-18
-7.83174e-19
3.16992e-18
1.82753e-18
2.30167e-19
1.33719e-19
1.36954e-18
-2.26713e-18
-9.40714e-19
-2.2034e-18
-3.01152e-18
-2.64654e-18
-9.1982e-20
5.2833e-19
2.00191e-18
-6.71476e-19
1.92438e-18
1.99938e-18
9.51011e-19
-4.81701e-19
-4.15747e-19
1.56011e-18
2.92062e-19
4.27011e-18
-8.70023e-19
6.20094e-20
-2.2621e-19
8.40745e-19
3.34096e-19
-1.81984e-18
-8.40674e-19
9.96969e-19
-3.06547e-18
-2.17425e-18
-2.28258e-18
-1.64239e-18
-2.99709e-18
-4.34893e-18
-1.50146e-18
-3.16518e-19
-1.78324e-18
-5.24666e-19
3.50041e-19
5.10838e-20
-4.28455e-19
6.93437e-19
1.4181e-18
2.24391e-19
-5.96519e-19
9.45389e-20
7.47782e-19
1.10394e-19
-4.59733e-19
-3.59059e-18
-1.65375e-18
-3.33444e-18
-2.64962e-18
-6.58758e-19
-9.18673e-19
-1.74741e-18
-7.49294e-19
2.51999e-19
-2.87812e-18
-8.39597e-19
1.54842e-18
3.15263e-18
1.74756e-19
5.56258e-19
4.66427e-19
1.23349e-18
-5.84026e-19
-1.61003e-18
-3.77563e-18
-4.38097e-18
-6.22847e-18
-2.58998e-18
-6.17456e-18
-4.61498e-18
-4.35197e-18
-6.98709e-18
-5.81063e-18
-4.32691e-18
-3.77147e-18
-1.84287e-18
-2.82506e-18
-5.33327e-18
-2.7438e-18
-2.26818e-18
-6.29402e-19
-2.47469e-18
-1.24148e-18
-3.29413e-18
-4.79779e-18
-2.79349e-18
-3.24991e-18
-3.39397e-18
-5.45609e-18
-4.82895e-18
-8.45428e-18
-8.78537e-18
-8.61245e-18
-8.73608e-18
-6.7187e-18
-7.07538e-18
-7.0368e-18
-8.06102e-18
-5.97277e-18
-4.98098e-18
-6.56189e-18
-7.69363e-18
-8.13663e-18
-6.95802e-18
-6.32374e-18
-7.27689e-18
-4.81392e-18
-7.45193e-18
-5.88765e-18
-5.60789e-18
-4.49699e-18
-6.30887e-18
-4.02766e-18
-1.23917e-18
-5.16345e-18
-1.07789e-18
-1.47644e-18
8.2019e-19
-9.8776e-19
8.30104e-19
2.60785e-18
-1.8062e-19
-3.16108e-19
-3.93739e-18
-2.59672e-18
-2.77186e-18
-5.08607e-18
-5.44835e-18
-5.59505e-18
-8.4711e-18
-7.25536e-18
-7.67942e-18
-5.98585e-18
-8.96061e-18
-6.81397e-18
-4.27769e-18
-4.25915e-18
-1.75661e-18
-2.38936e-18
-1.0638e-18
-4.85012e-18
-3.95832e-18
-6.87366e-18
-6.13802e-18
-5.82092e-18
-5.32662e-18
-4.04366e-18
-6.44016e-18
-6.09868e-18
-3.2831e-18
-2.84434e-18
-2.42235e-18
-2.16854e-18
-3.1046e-18
-2.68107e-18
-2.00972e-18
-6.21943e-18
-1.01373e-17
-1.15978e-17
-1.01101e-17
-9.46511e-18
-1.3298e-17
-9.02495e-18
-8.31245e-18
-6.9811e-18
-8.5378e-18
-8.21068e-18
-8.92012e-18
-9.14452e-18
-9.66101e-18
-9.06666e-18
-8.55953e-18
-8.80942e-18
-8.94336e-18
-9.04294e-18
-9.04326e-18
-9.87575e-18
-9.55558e-18
-7.99117e-18
-8.25148e-18
-6.53363e-18
-7.0536e-18
-8.5443e-18
-1.09951e-17
-1.17506e-17
-1.11423e-17
-1.16012e-17
-1.11399e-17
-1.16372e-17
-1.19508e-17
-1.18448e-17
-9.02212e-18
-1.14181e-17
-6.72472e-18
-8.62766e-18
-7.90288e-18
)
;

boundaryField
{
    sides
    {
        type            calculated;
        value           nonuniform List<scalar> 2(-6.95369e-18 2.71898e-22);
    }
    empty1
    {
        type            empty;
        value           nonuniform 0();
    }
    empty2
    {
        type            empty;
        value           nonuniform 0();
    }
}


// ************************************************************************* //
