/*--------------------------------*- C++ -*----------------------------------*\
| =========                 |                                                 |
| \\      /  F ield         | OpenFOAM: The Open Source CFD Toolbox           |
|  \\    /   O peration     | Version:  v1812                                 |
|   \\  /    A nd           | Web:      www.OpenFOAM.com                      |
|    \\/     M anipulation  |                                                 |
\*---------------------------------------------------------------------------*/
FoamFile
{
    version     2.0;
    format      ascii;
    class       volVectorField;
    location    "0.012";
    object      U;
}
// * * * * * * * * * * * * * * * * * * * * * * * * * * * * * * * * * * * * * //

dimensions      [0 1 -1 0 0 0 0];


internalField   nonuniform List<vector> 
800
(
(-6.79798e-19 0 0)
(-1.6745e-18 0 0)
(-1.05793e-17 0 0)
(6.12503e-18 0 0)
(1.58661e-16 0 0)
(2.20339e-16 0 0)
(-5.99727e-17 0 0)
(-1.7456e-16 0 0)
(2.29688e-16 0 0)
(-4.05473e-17 0 0)
(-1.64806e-16 0 0)
(1.79681e-16 0 0)
(-1.08416e-17 0 0)
(-8.54213e-17 0 0)
(-2.53507e-16 0 0)
(-1.14917e-17 0 0)
(1.57149e-16 0 0)
(-5.57906e-17 0 0)
(1.11035e-16 0 0)
(-2.25089e-17 0 0)
(-1.19391e-16 0 0)
(1.34868e-16 0 0)
(-2.78068e-17 0 0)
(1.15581e-16 0 0)
(-1.18982e-16 0 0)
(5.27109e-17 0 0)
(2.37351e-17 0 0)
(7.60615e-18 0 0)
(1.05296e-16 0 0)
(-7.19679e-18 0 0)
(1.4556e-17 0 0)
(-4.58045e-17 0 0)
(-9.31901e-17 0 0)
(-5.45937e-18 0 0)
(1.14243e-16 0 0)
(-6.18763e-17 0 0)
(-7.76798e-17 0 0)
(2.54872e-17 0 0)
(-3.89501e-17 0 0)
(-1.34069e-16 0 0)
(1.7805e-16 0 0)
(2.29055e-17 0 0)
(-2.04874e-17 0 0)
(-2.56339e-17 0 0)
(9.70162e-18 0 0)
(8.19182e-18 0 0)
(3.42151e-18 0 0)
(3.01261e-18 0 0)
(2.21468e-17 0 0)
(6.37309e-17 0 0)
(-1.37926e-16 0 0)
(1.57449e-16 0 0)
(-5.95579e-17 0 0)
(-6.25274e-17 0 0)
(1.5585e-16 0 0)
(-5.16278e-17 0 0)
(-9.83073e-17 0 0)
(-5.1967e-17 0 0)
(-8.88355e-17 0 0)
(3.48025e-17 0 0)
(-3.6531e-17 0 0)
(3.56817e-17 0 0)
(-3.78083e-17 0 0)
(3.06339e-17 0 0)
(-2.76422e-17 0 0)
(2.53528e-16 0 0)
(-4.2718e-17 0 0)
(-3.81348e-17 0 0)
(1.11419e-16 0 0)
(-8.16857e-17 0 0)
(-1.15299e-16 0 0)
(-9.34847e-17 0 0)
(1.28837e-16 0 0)
(5.51435e-17 0 0)
(3.41976e-17 0 0)
(-1.42845e-16 0 0)
(2.60174e-17 0 0)
(1.96397e-16 0 0)
(-5.39168e-17 0 0)
(-1.77202e-16 0 0)
(4.84316e-17 0 0)
(-2.78645e-17 0 0)
(1.92617e-16 0 0)
(-9.16957e-17 0 0)
(-2.73732e-16 0 0)
(-6.91413e-18 0 0)
(1.58836e-16 0 0)
(-5.57623e-17 0 0)
(1.15167e-16 0 0)
(-4.49782e-17 0 0)
(1.73773e-16 0 0)
(-5.34512e-17 0 0)
(-5.5455e-17 0 0)
(2.07073e-18 0 0)
(-1.44943e-17 0 0)
(8.88089e-17 0 0)
(-8.45418e-17 0 0)
(1.48102e-16 0 0)
(-9.30055e-17 0 0)
(-2.73938e-16 0 0)
(4.33182e-17 0 0)
(2.13411e-16 0 0)
(3.85298e-18 0 0)
(-2.11782e-16 0 0)
(-1.60979e-16 0 0)
(8.35888e-17 0 0)
(3.97964e-16 0 0)
(-7.75473e-17 0 0)
(-2.07722e-16 0 0)
(1.43115e-16 0 0)
(9.81078e-17 0 0)
(-2.17512e-17 0 0)
(-2.13322e-16 0 0)
(-1.74879e-16 0 0)
(3.38237e-18 0 0)
(2.6158e-16 0 0)
(-1.21323e-16 0 0)
(-1.55861e-16 0 0)
(7.23586e-17 0 0)
(4.09659e-16 0 0)
(-5.68827e-17 0 0)
(-2.01982e-16 0 0)
(1.18008e-16 0 0)
(9.42667e-18 0 0)
(-2.05108e-16 0 0)
(-1.60186e-16 0 0)
(7.78235e-17 0 0)
(3.89897e-16 0 0)
(-2.23263e-17 0 0)
(-7.87205e-17 0 0)
(-6.44124e-19 0 0)
(4.28451e-17 0 0)
(-1.25834e-16 0 0)
(6.44334e-17 0 0)
(-3.17092e-17 0 0)
(1.01868e-16 0 0)
(-7.89317e-18 0 0)
(-2.08065e-16 0 0)
(-1.73083e-16 0 0)
(6.05166e-17 0 0)
(4.15863e-16 0 0)
(-7.3115e-17 0 0)
(-2.77126e-16 0 0)
(-2.36915e-17 0 0)
(2.61935e-16 0 0)
(-1.34191e-16 0 0)
(-3.33815e-17 0 0)
(1.54255e-16 0 0)
(-4.14573e-17 0 0)
(-1.64848e-16 0 0)
(-1.61073e-16 0 0)
(3.8979e-17 0 0)
(3.164e-16 0 0)
(-2.45526e-17 0 0)
(-1.01067e-16 0 0)
(-5.41368e-17 0 0)
(2.87383e-16 0 0)
(-3.60104e-17 0 0)
(-1.17944e-16 0 0)
(-2.25241e-16 0 0)
(-3.54672e-17 0 0)
(1.22994e-16 0 0)
(1.33087e-16 0 0)
(-7.10553e-17 0 0)
(1.00663e-16 0 0)
(1.84171e-17 0 0)
(-1.87699e-16 0 0)
(-3.80425e-17 0 0)
(-1.99072e-17 0 0)
(2.35304e-16 0 0)
(-2.37557e-17 0 0)
(-1.54751e-16 0 0)
(1.91451e-16 0 0)
(-4.3174e-18 0 0)
(-6.64846e-17 0 0)
(-4.73894e-17 0 0)
(-8.18425e-17 0 0)
(1.94531e-16 0 0)
(-2.04299e-17 0 0)
(-8.97244e-17 0 0)
(-6.33204e-18 0 0)
(-9.07514e-17 0 0)
(1.48506e-16 0 0)
(1.23711e-17 0 0)
(-9.44637e-17 0 0)
(1.37027e-16 0 0)
(-5.65307e-17 0 0)
(-9.99996e-17 0 0)
(-9.72739e-17 0 0)
(2.18242e-17 0 0)
(2.69679e-16 0 0)
(9.03658e-18 0 0)
(-4.23757e-17 0 0)
(-1.15729e-16 0 0)
(6.69552e-17 0 0)
(-5.26206e-17 0 0)
(-7.08935e-17 0 0)
(-3.74517e-17 0 0)
(1.5087e-16 0 0)
(-8.44297e-17 0 0)
(2.56017e-16 0 0)
(5.43311e-18 0 0)
(-1.47346e-16 0 0)
(5.88203e-17 0 0)
(6.98087e-17 0 0)
(-2.04699e-17 0 0)
(-1.02064e-16 0 0)
(4.99667e-17 0 0)
(-5.37995e-17 0 0)
(6.2432e-17 0 0)
(-5.38016e-17 0 0)
(4.7834e-17 0 0)
(7.30351e-17 0 0)
(-1.36213e-17 0 0)
(-1.36752e-16 0 0)
(1.27027e-17 0 0)
(-3.14298e-17 0 0)
(1.01678e-16 0 0)
(-5.38012e-17 0 0)
(4.25521e-17 0 0)
(5.78401e-17 0 0)
(-3.64061e-17 0 0)
(-9.71993e-17 0 0)
(1.42562e-16 0 0)
(-2.44896e-17 0 0)
(-8.99054e-17 0 0)
(5.36041e-17 0 0)
(5.58435e-17 0 0)
(-3.73228e-17 0 0)
(-1.47698e-16 0 0)
(-1.8522e-16 0 0)
(1.51369e-16 0 0)
(1.59978e-16 0 0)
(-5.3694e-17 0 0)
(6.45877e-17 0 0)
(-4.67243e-17 0 0)
(7.73315e-17 0 0)
(-1.01117e-16 0 0)
(-2.30107e-16 0 0)
(1.96282e-17 0 0)
(-5.86036e-17 0 0)
(-7.94019e-17 0 0)
(8.35081e-17 0 0)
(3.07757e-16 0 0)
(1.24389e-17 0 0)
(5.54954e-17 0 0)
(3.39109e-18 0 0)
(-1.33317e-16 0 0)
(6.38762e-17 0 0)
(5.43374e-17 0 0)
(-1.20181e-16 0 0)
(-1.8623e-16 0 0)
(2.4424e-16 0 0)
(-1.47114e-16 0 0)
(-9.71595e-18 0 0)
(1.71172e-16 0 0)
(-6.84444e-17 0 0)
(1.39137e-17 0 0)
(-3.23385e-17 0 0)
(1.03241e-16 0 0)
(4.64502e-17 0 0)
(-3.79588e-17 0 0)
(-9.70043e-17 0 0)
(2.22567e-16 0 0)
(-1.68623e-16 0 0)
(1.87699e-17 0 0)
(-6.72608e-17 0 0)
(2.23788e-17 0 0)
(-1.69575e-17 0 0)
(2.33928e-16 0 0)
(-1.25612e-16 0 0)
(-1.03744e-17 0 0)
(4.49959e-17 0 0)
(-1.88288e-16 0 0)
(5.53019e-17 0 0)
(-2.5554e-17 0 0)
(1.33386e-16 0 0)
(2.24462e-17 0 0)
(-2.22344e-16 0 0)
(-1.10906e-16 0 0)
(-3.62403e-17 0 0)
(1.22842e-16 0 0)
(1.75459e-16 0 0)
(-7.28727e-17 0 0)
(7.16352e-18 0 0)
(8.23464e-17 0 0)
(-1.66608e-17 0 0)
(2.49857e-17 0 0)
(-1.99198e-17 0 0)
(-1.09369e-16 0 0)
(1.03566e-16 0 0)
(-5.47259e-17 0 0)
(5.4798e-17 0 0)
(-4.02102e-17 0 0)
(2.02214e-16 0 0)
(-1.19126e-16 0 0)
(-3.69593e-17 0 0)
(-7.79485e-17 0 0)
(-3.67113e-17 0 0)
(-1.0931e-16 0 0)
(7.70412e-17 0 0)
(1.81501e-16 0 0)
(-1.15098e-16 0 0)
(-2.3469e-16 0 0)
(8.97692e-17 0 0)
(1.89549e-16 0 0)
(-9.14419e-17 0 0)
(-2.21788e-16 0 0)
(9.3387e-17 0 0)
(4.02816e-16 0 0)
(-1.5208e-16 0 0)
(-6.13633e-17 0 0)
(1.21722e-16 0 0)
(1.10803e-18 0 0)
(-1.35864e-16 0 0)
(1.44034e-17 0 0)
(-2.49602e-17 0 0)
(1.34864e-16 0 0)
(1.91097e-17 0 0)
(-2.35066e-16 0 0)
(-1.28189e-16 0 0)
(1.9259e-17 0 0)
(2.76996e-16 0 0)
(-5.43673e-13 0 0)
(-4.07629e-07 0 0)
(-0.0242151 0 0)
(-1.55325 0 0)
(-4.31144 0 0)
(-5.56629 0 0)
(-5.99788 0 0)
(-6.14072 0 0)
(-6.18692 0 0)
(-6.20052 0 0)
(-6.20476 0 0)
(-6.20681 0 0)
(-6.20981 0 0)
(-6.21945 0 0)
(-6.24553 0 0)
(-6.28652 0 0)
(-6.31839 0 0)
(-6.32629 0 0)
(-6.31098 0 0)
(-6.27241 0 0)
(-6.23551 0 0)
(-6.2082 0 0)
(-6.18968 0 0)
(-6.17933 0 0)
(-6.17405 0 0)
(-6.17195 0 0)
(-6.17121 0 0)
(-6.17085 0 0)
(-6.17072 0 0)
(-6.17069 0 0)
(-6.17081 0 0)
(-6.17097 0 0)
(-6.17106 0 0)
(-6.17108 0 0)
(-6.17109 0 0)
(-6.17109 0 0)
(-6.1712 0 0)
(-6.17133 0 0)
(-6.17153 0 0)
(-6.17173 0 0)
(-6.17187 0 0)
(-6.17194 0 0)
(-6.17198 0 0)
(-6.17192 0 0)
(-6.17173 0 0)
(-6.17154 0 0)
(-6.17141 0 0)
(-6.17132 0 0)
(-6.17129 0 0)
(-6.17128 0 0)
(-6.17124 0 0)
(-6.17108 0 0)
(-6.17082 0 0)
(-6.17044 0 0)
(-6.16989 0 0)
(-6.16931 0 0)
(-6.16898 0 0)
(-6.16888 0 0)
(-6.16894 0 0)
(-6.16914 0 0)
(-6.16961 0 0)
(-6.17043 0 0)
(-6.17162 0 0)
(-6.17319 0 0)
(-6.17511 0 0)
(-6.17735 0 0)
(-6.17992 0 0)
(-6.18289 0 0)
(-6.18635 0 0)
(-6.19028 0 0)
(-6.19454 0 0)
(-6.19879 0 0)
(-6.20265 0 0)
(-6.20596 0 0)
(-6.20873 0 0)
(-6.21104 0 0)
(-6.21286 0 0)
(-6.21403 0 0)
(-6.21453 0 0)
(-6.21462 0 0)
(-6.21458 0 0)
(-6.21436 0 0)
(-6.21382 0 0)
(-6.21285 0 0)
(-6.21133 0 0)
(-6.2092 0 0)
(-6.20644 0 0)
(-6.20309 0 0)
(-6.19922 0 0)
(-6.19493 0 0)
(-6.19037 0 0)
(-6.18564 0 0)
(-6.18083 0 0)
(-6.17597 0 0)
(-6.17099 0 0)
(-6.16579 0 0)
(-6.16034 0 0)
(-6.15478 0 0)
(-6.14952 0 0)
(-6.14515 0 0)
(-6.14203 0 0)
(-6.14006 0 0)
(-6.13882 0 0)
(-6.13787 0 0)
(-6.13682 0 0)
(-6.13528 0 0)
(-6.1328 0 0)
(-6.12918 0 0)
(-6.12488 0 0)
(-6.12081 0 0)
(-6.11748 0 0)
(-6.11468 0 0)
(-6.11171 0 0)
(-6.10756 0 0)
(-6.10073 0 0)
(-6.08913 0 0)
(-6.07034 0 0)
(-6.04216 0 0)
(-6.00332 0 0)
(-5.95382 0 0)
(-5.89477 0 0)
(-5.8279 0 0)
(-5.75508 0 0)
(-5.67795 0 0)
(-5.5978 0 0)
(-5.51559 0 0)
(-5.43199 0 0)
(-5.34744 0 0)
(-5.26225 0 0)
(-5.17663 0 0)
(-5.09071 0 0)
(-5.00458 0 0)
(-4.91831 0 0)
(-4.83196 0 0)
(-4.74555 0 0)
(-4.65911 0 0)
(-4.57267 0 0)
(-4.48623 0 0)
(-4.39981 0 0)
(-4.31343 0 0)
(-4.22708 0 0)
(-4.14079 0 0)
(-4.05455 0 0)
(-3.96838 0 0)
(-3.88228 0 0)
(-3.79626 0 0)
(-3.71033 0 0)
(-3.62449 0 0)
(-3.53876 0 0)
(-3.45313 0 0)
(-3.36762 0 0)
(-3.28224 0 0)
(-3.19699 0 0)
(-3.11189 0 0)
(-3.02694 0 0)
(-2.94216 0 0)
(-2.85756 0 0)
(-2.77314 0 0)
(-2.68894 0 0)
(-2.60495 0 0)
(-2.52121 0 0)
(-2.43771 0 0)
(-2.3545 0 0)
(-2.27158 0 0)
(-2.18898 0 0)
(-2.10672 0 0)
(-2.02484 0 0)
(-1.94337 0 0)
(-1.86234 0 0)
(-1.78178 0 0)
(-1.70175 0 0)
(-1.62229 0 0)
(-1.54344 0 0)
(-1.46527 0 0)
(-1.38784 0 0)
(-1.31123 0 0)
(-1.2355 0 0)
(-1.16074 0 0)
(-1.08706 0 0)
(-1.01456 0 0)
(-0.943347 0 0)
(-0.87356 0 0)
(-0.805338 0 0)
(-0.738834 0 0)
(-0.674215 0 0)
(-0.61166 0 0)
(-0.55136 0 0)
(-0.493514 0 0)
(-0.438329 0 0)
(-0.386016 0 0)
(-0.33678 0 0)
(-0.290819 0 0)
(-0.248312 0 0)
(-0.20941 0 0)
(-0.174224 0 0)
(-0.142819 0 0)
(-0.1152 0 0)
(-0.0913052 0 0)
(-0.0710027 0 0)
(-0.0540915 0 0)
(-0.0403066 0 0)
(-0.0293303 0 0)
(-0.0208082 0 0)
(-0.0143682 0 0)
(-0.00963986 0 0)
(-0.0062729 0 0)
(-0.00395173 0 0)
(-0.00240531 0 0)
(-0.00141153 0 0)
(-0.000796753 0 0)
(-0.000431435 0 0)
(-0.000223427 0 0)
(-0.000110262 0 0)
(-5.16314e-05 0 0)
(-2.282e-05 0 0)
(-9.45739e-06 0 0)
(-3.64442e-06 0 0)
(-1.29146e-06 0 0)
(-4.1458e-07 0 0)
(-1.18033e-07 0 0)
(-2.88813e-08 0 0)
(-5.77938e-09 0 0)
(-8.68128e-10 0 0)
(-8.29251e-11 0 0)
(-3.58705e-12 0 0)
(-2.21518e-14 0 0)
(1.33538e-14 0 0)
(1.53272e-14 0 0)
(1.58746e-14 0 0)
(9.52999e-15 0 0)
(8.3186e-15 0 0)
(1.2809e-14 0 0)
(1.03254e-14 0 0)
(1.08163e-14 0 0)
(1.0468e-14 0 0)
(3.68398e-15 0 0)
(6.52664e-15 0 0)
(3.72871e-15 0 0)
(3.66983e-15 0 0)
(-2.00418e-15 0 0)
(-7.65879e-15 0 0)
(-1.82296e-15 0 0)
(-5.24865e-15 0 0)
(-8.79066e-15 0 0)
(-3.827e-15 0 0)
(-1.36285e-14 0 0)
(-1.02596e-14 0 0)
(-1.33241e-14 0 0)
(-1.0291e-14 0 0)
(-1.02217e-14 0 0)
(-7.54399e-15 0 0)
(-6.24029e-15 0 0)
(-1.66261e-15 0 0)
(1.15998e-15 0 0)
(1.83428e-16 0 0)
(-6.37879e-16 0 0)
(1.20389e-15 0 0)
(1.80298e-15 0 0)
(4.70212e-15 0 0)
(5.71662e-15 0 0)
(3.7333e-15 0 0)
(7.08878e-15 0 0)
(2.49453e-15 0 0)
(3.27298e-15 0 0)
(3.42781e-15 0 0)
(4.16683e-15 0 0)
(5.83099e-17 0 0)
(-1.46446e-15 0 0)
(-1.56472e-16 0 0)
(-1.46827e-15 0 0)
(9.30966e-16 0 0)
(4.22957e-15 0 0)
(1.45207e-15 0 0)
(1.31897e-15 0 0)
(6.9045e-15 0 0)
(6.65495e-15 0 0)
(-9.02114e-16 0 0)
(2.53186e-15 0 0)
(-6.373e-16 0 0)
(2.74483e-17 0 0)
(-3.8494e-15 0 0)
(-3.82445e-15 0 0)
(-6.84709e-15 0 0)
(-5.96308e-15 0 0)
(-5.12181e-15 0 0)
(-3.19679e-16 0 0)
(2.02031e-15 0 0)
(-1.68965e-15 0 0)
(3.39863e-15 0 0)
(4.42053e-15 0 0)
(3.80334e-15 0 0)
(-4.94307e-16 0 0)
(-1.47161e-15 0 0)
(4.8676e-15 0 0)
(7.50503e-17 0 0)
(7.58655e-15 0 0)
(-8.62433e-16 0 0)
(3.33489e-15 0 0)
(-2.12316e-15 0 0)
(2.76276e-15 0 0)
(-2.7477e-15 0 0)
(1.81155e-15 0 0)
(-6.74901e-15 0 0)
(-1.52729e-17 0 0)
(-3.39018e-15 0 0)
(-8.47276e-15 0 0)
(-4.80663e-15 0 0)
(-2.07297e-15 0 0)
(-5.60489e-15 0 0)
(-8.41427e-15 0 0)
(-9.4238e-15 0 0)
(-3.338e-15 0 0)
(-1.16523e-15 0 0)
(-1.88146e-15 0 0)
(-9.02465e-16 0 0)
(-2.71008e-16 0 0)
(2.7404e-19 0 0)
(-6.70862e-16 0 0)
(2.29747e-15 0 0)
(2.87726e-15 0 0)
(1.35483e-15 0 0)
(-3.04336e-15 0 0)
(2.48019e-15 0 0)
(-4.67763e-16 0 0)
(-3.99938e-16 0 0)
(-6.05164e-15 0 0)
(-8.01909e-15 0 0)
(-7.03007e-15 0 0)
(-5.7934e-15 0 0)
(-2.51661e-15 0 0)
(-1.28805e-15 0 0)
(-2.44333e-15 0 0)
(-4.14091e-15 0 0)
(-3.91093e-15 0 0)
(5.02215e-16 0 0)
(-6.21694e-15 0 0)
(2.51963e-15 0 0)
(7.03812e-15 0 0)
(1.12135e-15 0 0)
(-2.72424e-17 0 0)
(9.21041e-16 0 0)
(2.01169e-15 0 0)
(1.19866e-15 0 0)
(-2.21034e-15 0 0)
(-5.4567e-15 0 0)
(-1.03669e-14 0 0)
(-1.02706e-14 0 0)
(-1.37156e-14 0 0)
(-1.11358e-14 0 0)
(-1.05142e-14 0 0)
(-1.41611e-14 0 0)
(-1.44842e-14 0 0)
(-1.76921e-14 0 0)
(-8.62151e-15 0 0)
(-9.52046e-15 0 0)
(-9.61489e-15 0 0)
(-5.5289e-15 0 0)
(-1.02003e-14 0 0)
(-8.0466e-15 0 0)
(-3.94086e-15 0 0)
(-7.27965e-15 0 0)
(-5.08541e-15 0 0)
(-4.19485e-15 0 0)
(-6.20852e-15 0 0)
(-1.01307e-14 0 0)
(-7.17979e-15 0 0)
(-7.06238e-15 0 0)
(-7.66528e-15 0 0)
(-1.13163e-14 0 0)
(-1.384e-14 0 0)
(-1.9778e-14 0 0)
(-1.95166e-14 0 0)
(-2.34096e-14 0 0)
(-1.86604e-14 0 0)
(-2.30749e-14 0 0)
(-1.61963e-14 0 0)
(-1.96115e-14 0 0)
(-1.53982e-14 0 0)
(-1.76555e-14 0 0)
(-1.60861e-14 0 0)
(-1.42781e-14 0 0)
(-1.71021e-14 0 0)
(-1.65438e-14 0 0)
(-2.11867e-14 0 0)
(-1.47681e-14 0 0)
(-2.21395e-14 0 0)
(-1.25437e-14 0 0)
(-1.5334e-14 0 0)
(-1.93788e-14 0 0)
(-1.24291e-14 0 0)
(-1.37003e-14 0 0)
(-1.46142e-14 0 0)
(-1.09933e-14 0 0)
(-9.84297e-15 0 0)
(-7.83042e-15 0 0)
(-4.02268e-15 0 0)
(-5.11517e-15 0 0)
(1.36543e-15 0 0)
(-2.94133e-15 0 0)
(-1.54645e-15 0 0)
(2.7669e-15 0 0)
(3.16711e-15 0 0)
(-3.43264e-15 0 0)
(-3.14358e-15 0 0)
(-7.60757e-15 0 0)
(-4.88452e-15 0 0)
(-1.12598e-14 0 0)
(-1.14752e-14 0 0)
(-1.3769e-14 0 0)
(-1.78686e-14 0 0)
(-1.92501e-14 0 0)
(-1.65947e-14 0 0)
(-1.98682e-14 0 0)
(-1.61575e-14 0 0)
(-2.0948e-14 0 0)
(-1.25582e-14 0 0)
(-1.09795e-14 0 0)
(-6.52116e-15 0 0)
(-5.29923e-15 0 0)
(-3.93631e-15 0 0)
(-5.14743e-15 0 0)
(-1.1073e-14 0 0)
(-1.26944e-14 0 0)
(-1.70096e-14 0 0)
(-1.22515e-14 0 0)
(-1.5998e-14 0 0)
(-1.2794e-14 0 0)
(-1.16361e-14 0 0)
(-1.52027e-14 0 0)
(-1.41083e-14 0 0)
(-7.49434e-15 0 0)
(-6.13919e-15 0 0)
(-6.54226e-15 0 0)
(-5.89415e-15 0 0)
(-6.12316e-15 0 0)
(-8.18684e-15 0 0)
(-1.48836e-14 0 0)
(-1.74696e-14 0 0)
(-2.43144e-14 0 0)
(-2.94615e-14 0 0)
(-2.33385e-14 0 0)
(-3.10032e-14 0 0)
(-2.84783e-14 0 0)
(-1.68648e-14 0 0)
(-2.11523e-14 0 0)
(-1.85151e-14 0 0)
(-1.95322e-14 0 0)
(-2.18028e-14 0 0)
(-2.12376e-14 0 0)
(-2.50535e-14 0 0)
(-2.26747e-14 0 0)
(-2.21199e-14 0 0)
(-2.26825e-14 0 0)
(-2.08312e-14 0 0)
(-2.31908e-14 0 0)
(-2.22143e-14 0 0)
(-2.35172e-14 0 0)
(-2.28981e-14 0 0)
(-2.30996e-14 0 0)
(-2.23709e-14 0 0)
(-1.70961e-14 0 0)
(-1.75711e-14 0 0)
(-2.24133e-14 0 0)
(-2.18426e-14 0 0)
(-2.79608e-14 0 0)
(-2.84772e-14 0 0)
(-2.92176e-14 0 0)
(-2.80493e-14 0 0)
(-3.02846e-14 0 0)
(-2.54935e-14 0 0)
(-3.29464e-14 0 0)
(-2.50869e-14 0 0)
(-2.33798e-14 0 0)
(-1.89123e-14 0 0)
(-2.02703e-14 0 0)
(-2.33908e-14 0 0)
(-1.71077e-14 0 0)
)
;

boundaryField
{
    sides
    {
        type            zeroGradient;
    }
    empty1
    {
        type            empty;
    }
    empty2
    {
        type            empty;
    }
}


// ************************************************************************* //
