/*--------------------------------*- C++ -*----------------------------------*\
| =========                 |                                                 |
| \\      /  F ield         | OpenFOAM: The Open Source CFD Toolbox           |
|  \\    /   O peration     | Version:  v1812                                 |
|   \\  /    A nd           | Web:      www.OpenFOAM.com                      |
|    \\/     M anipulation  |                                                 |
\*---------------------------------------------------------------------------*/
FoamFile
{
    version     2.0;
    format      ascii;
    class       surfaceScalarField;
    location    "0.004";
    object      phi;
}
// * * * * * * * * * * * * * * * * * * * * * * * * * * * * * * * * * * * * * //

dimensions      [1 0 -1 0 0 0 0];
oriented        oriented;


internalField   nonuniform List<scalar> 
16762
(
0.0423011
7.5513e-18
0.0423011
2.1397e-18
0.0423011
-1.22696e-17
0.0423011
3.96181e-18
0.0423011
-2.47801e-17
0.0423011
-6.19094e-18
0.0423011
-1.98016e-17
0.0423011
-1.45109e-17
0.0423011
-3.50509e-17
0.0423011
-4.40449e-17
0.0423011
-3.58623e-17
0.0423011
-2.45551e-17
0.0423011
-2.86976e-17
0.0423011
-2.85393e-17
0.0423011
2.58908e-17
0.0423011
4.05418e-17
0.0423011
3.59756e-17
0.0423011
5.82609e-17
0.0423011
6.75717e-17
0.0423011
6.578e-17
0.0423011
7.99071e-17
0.0423011
4.91265e-17
0.0423011
6.69177e-17
0.0423011
7.76612e-17
0.0423011
9.98323e-17
0.0423011
7.46334e-17
0.0423011
8.75037e-17
0.0423011
7.61792e-17
0.0423011
7.12223e-17
0.0423011
2.73413e-17
0.0423011
5.42316e-17
0.0423011
1.61813e-16
0.0423011
1.89241e-14
0.0423011
5.89482e-13
0.0423011
8.00821e-11
0.0423011
3.14935e-09
0.0423007
3.75684e-07
1.71261e-05
0.0422836
0.0423011
6.94997e-18
0.0423011
-2.21953e-18
0.0423011
-1.07302e-18
0.0423011
-5.63853e-18
0.0423011
-7.87861e-18
0.0423011
-2.08356e-17
0.0423011
-2.20821e-17
0.0423011
-3.55228e-17
0.0423011
-5.07388e-18
0.0423011
-2.11019e-17
0.0423011
-1.85519e-17
0.0423011
-2.7245e-17
0.0423011
-4.48781e-17
0.0423011
-5.19746e-17
0.0423011
-2.57275e-17
0.0423011
-2.88659e-18
0.0423011
-1.50827e-17
0.0423011
3.10461e-18
0.0423011
3.02133e-17
0.0423011
3.79522e-17
0.0423011
5.46526e-17
0.0423011
6.39942e-17
0.0423011
8.17442e-17
0.0423011
7.10145e-17
0.0423011
7.95257e-17
0.0423011
7.1421e-17
0.0423011
9.18271e-17
0.0423011
8.64524e-17
0.0423011
7.00072e-17
0.0423011
7.77422e-17
0.0423011
5.5172e-17
0.0423011
1.96319e-16
0.0423011
7.17823e-15
0.0423011
5.18467e-13
0.0423011
2.00426e-11
0.0423011
1.59076e-09
0.0423015
4.51033e-08
3.52542e-06
0.042315
0.0423011
-2.49767e-17
0.0423011
-1.67558e-17
0.0423011
-4.30372e-18
0.0423011
-1.09654e-17
0.0423011
-5.06548e-18
0.0423011
-2.47732e-17
0.0423011
-3.82475e-17
0.0423011
-2.89386e-17
0.0423011
-1.88242e-17
0.0423011
-9.34399e-18
0.0423011
-7.26255e-18
0.0423011
-2.6538e-17
0.0423011
-2.97796e-17
0.0423011
-2.12045e-17
0.0423011
-2.3786e-17
0.0423011
-3.16082e-17
0.0423011
-2.81514e-17
0.0423011
-2.77738e-17
0.0423011
-4.028e-18
0.0423011
2.6686e-17
0.0423011
3.21868e-17
0.0423011
5.47141e-17
0.0423011
4.09615e-17
0.0423011
6.25321e-17
0.0423011
6.59204e-17
0.0423011
7.09486e-17
0.0423011
5.72131e-17
0.0423011
6.48502e-17
0.0423011
5.2651e-17
0.0423011
5.53262e-17
0.0423011
5.06993e-17
0.0423011
9.57124e-17
0.0423011
8.96947e-16
0.0423011
1.11063e-13
0.0423011
1.56075e-12
0.0423011
2.18498e-10
0.0423012
1.95607e-09
3.50481e-07
0.0423043
0.0423011
-6.53379e-18
0.0423011
-5.63918e-18
0.0423011
-1.30278e-17
0.0423011
-1.22582e-17
0.0423011
-8.51225e-18
0.0423011
-1.27893e-17
0.0423011
-3.78967e-18
0.0423011
1.5649e-17
0.0423011
-3.8247e-18
0.0423011
-1.92229e-18
0.0423011
-1.98626e-17
0.0423011
-5.99621e-18
0.0423011
-9.15269e-18
0.0423011
6.97134e-18
0.0423011
-3.48318e-17
0.0423011
-3.91751e-17
0.0423011
-2.27664e-17
0.0423011
-9.79385e-18
0.0423011
-2.57309e-17
0.0423011
-5.8864e-18
0.0423011
3.53254e-18
0.0423011
-2.61721e-18
0.0423011
2.04823e-17
0.0423011
2.1331e-17
0.0423011
2.85436e-17
0.0423011
2.48814e-17
0.0423011
2.73043e-17
0.0423011
2.79648e-17
0.0423011
4.30137e-17
0.0423011
3.56955e-17
0.0423011
3.36796e-17
0.0423011
4.8475e-17
0.0423011
4.65825e-17
0.0423011
1.05246e-14
0.0423011
3.48484e-14
0.0423011
1.47911e-11
0.0423011
3.7121e-11
2.02578e-08
0.0423015
0.0423011
-1.09822e-17
0.0423011
1.45741e-17
0.0423011
-6.23101e-19
0.0423011
8.6786e-19
0.0423011
9.49391e-18
0.0423011
2.99417e-18
0.0423011
3.50886e-19
0.0423011
-8.72747e-18
0.0423011
-1.99754e-17
0.0423011
-4.4199e-18
0.0423011
-1.4596e-17
0.0423011
-2.89426e-17
0.0423011
-7.83711e-18
0.0423011
-3.34448e-17
0.0423011
-9.93816e-18
0.0423011
-1.22805e-17
0.0423011
-1.73187e-17
0.0423011
-2.52342e-17
0.0423011
-2.56834e-17
0.0423011
-1.58706e-17
0.0423011
-2.61606e-17
0.0423011
-4.41604e-17
0.0423011
-1.65123e-17
0.0423011
-6.8995e-18
0.0423011
-4.8391e-19
0.0423011
-8.03951e-19
0.0423011
-1.13284e-18
0.0423011
-8.51013e-18
0.0423011
2.40178e-17
0.0423011
2.14869e-17
0.0423011
4.5863e-17
0.0423011
3.65246e-17
0.0423011
4.15774e-18
0.0423011
4.60239e-16
0.0423011
1.01276e-16
0.0423011
5.9315e-13
0.0423011
6.9596e-13
8.0347e-10
0.0423011
0.0423011
5.35734e-18
0.0423011
-1.70887e-17
0.0423011
-2.03332e-17
0.0423011
-5.98038e-18
0.0423011
1.00188e-17
0.0423011
2.33746e-17
0.0423011
5.24216e-17
0.0423011
1.34768e-17
0.0423011
-5.55825e-18
0.0423011
-7.38708e-18
0.0423011
-5.1485e-18
0.0423011
1.95796e-17
0.0423011
-1.77479e-17
0.0423011
5.75505e-19
0.0423011
-1.8637e-18
0.0423011
-6.38512e-18
0.0423011
-6.85526e-18
0.0423011
-3.39957e-17
0.0423011
-3.58437e-17
0.0423011
-2.42409e-17
0.0423011
-4.7185e-17
0.0423011
-2.23265e-17
0.0423011
-5.2448e-17
0.0423011
-5.2857e-17
0.0423011
-3.37908e-17
0.0423011
-6.4087e-18
0.0423011
-1.25181e-17
0.0423011
2.6065e-18
0.0423011
-1.07948e-17
0.0423011
8.63785e-18
0.0423011
3.15847e-18
0.0423011
8.14094e-19
0.0423011
1.00081e-17
0.0423011
-5.55883e-18
0.0423011
-4.13136e-17
0.0423011
1.64576e-14
0.0423011
2.03572e-14
2.40257e-11
0.0423011
0.0423011
1.80607e-18
0.0423011
-3.65873e-18
0.0423011
7.29559e-18
0.0423011
-1.10182e-18
0.0423011
-1.19606e-17
0.0423011
-2.88005e-17
0.0423011
-1.95017e-17
0.0423011
-1.54064e-17
0.0423011
-1.35719e-17
0.0423011
-1.28149e-17
0.0423011
-5.3881e-18
0.0423011
-1.57917e-18
0.0423011
-4.17461e-18
0.0423011
-6.40877e-18
0.0423011
4.34363e-18
0.0423011
-1.90789e-17
0.0423011
-2.05712e-19
0.0423011
-3.48796e-18
0.0423011
-2.35668e-17
0.0423011
-4.43743e-17
0.0423011
-4.11642e-17
0.0423011
-3.75949e-17
0.0423011
-2.90111e-17
0.0423011
-1.18239e-17
0.0423011
-2.30492e-17
0.0423011
-3.33831e-17
0.0423011
-1.49733e-17
0.0423011
-1.43413e-17
0.0423011
-8.59648e-18
0.0423011
-2.27624e-17
0.0423011
-6.08108e-18
0.0423011
-6.03046e-19
0.0423011
1.04592e-17
0.0423011
-1.16648e-17
0.0423011
-1.65715e-17
0.0423011
2.85523e-16
0.0423011
3.38224e-16
5.83572e-13
0.0423011
0.0423011
8.56771e-18
0.0423011
-2.37422e-17
0.0423011
-9.37331e-18
0.0423011
-2.28499e-17
0.0423011
-1.64536e-17
0.0423011
3.96079e-18
0.0423011
-1.835e-17
0.0423011
-1.44383e-18
0.0423011
-1.06146e-17
0.0423011
-6.81567e-18
0.0423011
-2.33748e-17
0.0423011
-1.27358e-17
0.0423011
-9.2916e-18
0.0423011
2.02126e-17
0.0423011
-1.48495e-17
0.0423011
9.09379e-19
0.0423011
-3.57409e-17
0.0423011
-1.84668e-17
0.0423011
-1.83385e-18
0.0423011
-4.8537e-17
0.0423011
-1.23023e-17
0.0423011
-4.85106e-17
0.0423011
-4.38401e-17
0.0423011
-5.13073e-17
0.0423011
-4.01331e-17
0.0423011
-3.27082e-17
0.0423011
-1.18617e-17
0.0423011
-1.78467e-17
0.0423011
-7.36128e-18
0.0423011
1.33961e-17
0.0423011
-1.82384e-17
0.0423011
-5.7674e-18
0.0423011
-3.32184e-18
0.0423011
2.35541e-17
0.0423011
-1.03647e-17
0.0423011
1.16166e-17
0.0423011
-3.4881e-18
1.27439e-14
0.0423011
0.0423011
-1.60971e-18
0.0423011
2.5944e-17
0.0423011
-5.58321e-18
0.0423011
-6.01436e-18
0.0423011
-1.55948e-17
0.0423011
-1.30263e-17
0.0423011
6.38295e-18
0.0423011
-1.75088e-17
0.0423011
-2.35401e-18
0.0423011
-1.09594e-17
0.0423011
-1.30199e-17
0.0423011
-2.29437e-17
0.0423011
-1.53281e-17
0.0423011
-3.01228e-17
0.0423011
-2.23865e-17
0.0423011
-3.05142e-17
0.0423011
-1.9416e-17
0.0423011
-1.29585e-17
0.0423011
-1.42822e-17
0.0423011
-1.96589e-17
0.0423011
-2.29125e-17
0.0423011
-2.52787e-17
0.0423011
-3.00211e-17
0.0423011
-3.81924e-17
0.0423011
-5.1821e-17
0.0423011
-4.7833e-17
0.0423011
-5.24801e-17
0.0423011
-2.24491e-17
0.0423011
-2.13158e-17
0.0423011
-1.45007e-17
0.0423011
7.69893e-18
0.0423011
2.01528e-18
0.0423011
6.3554e-18
0.0423011
-6.57069e-18
0.0423011
6.35784e-18
0.0423011
1.60095e-17
0.0423011
-6.41629e-18
2.16889e-16
0.0423011
0.0423011
-1.07976e-17
0.0423011
9.78855e-18
0.0423011
6.79693e-18
0.0423011
7.56078e-18
0.0423011
2.42014e-17
0.0423011
1.06046e-17
0.0423011
-6.86035e-18
0.0423011
-7.02578e-18
0.0423011
8.58387e-18
0.0423011
-1.44453e-18
0.0423011
-1.66361e-17
0.0423011
-6.55251e-18
0.0423011
-1.98778e-17
0.0423011
-3.70923e-17
0.0423011
-3.04221e-17
0.0423011
-2.89658e-17
0.0423011
-2.50789e-17
0.0423011
-1.11516e-17
0.0423011
-3.73697e-17
0.0423011
-1.93641e-17
0.0423011
-2.00831e-17
0.0423011
-4.98486e-17
0.0423011
-3.4291e-17
0.0423011
-1.77497e-17
0.0423011
-2.16705e-17
0.0423011
-1.42963e-17
0.0423011
-2.01322e-17
0.0423011
-2.68314e-17
0.0423011
-9.46153e-18
0.0423011
-2.47881e-17
0.0423011
-1.37093e-17
0.0423011
-4.45007e-17
0.0423011
-2.29388e-17
0.0423011
-1.04158e-17
0.0423011
-7.16508e-18
0.0423011
-1.29158e-17
0.0423011
-4.78278e-18
-6.71228e-19
0.0423011
0.0423011
7.54217e-18
0.0423011
-2.8465e-17
0.0423011
1.55021e-17
0.0423011
6.83901e-18
0.0423011
3.17625e-18
0.0423011
1.82597e-17
0.0423011
1.17567e-17
0.0423011
1.28291e-17
0.0423011
-1.42006e-17
0.0423011
-3.70057e-18
0.0423011
1.7878e-17
0.0423011
1.95163e-17
0.0423011
-5.35629e-17
0.0423011
-3.15539e-17
0.0423011
-3.445e-17
0.0423011
-2.80883e-17
0.0423011
-2.20058e-17
0.0423011
-1.15872e-17
0.0423011
7.57067e-19
0.0423011
-1.47329e-17
0.0423011
-5.08567e-17
0.0423011
-1.18467e-17
0.0423011
-1.92517e-17
0.0423011
-1.42191e-17
0.0423011
1.08433e-17
0.0423011
-4.77635e-19
0.0423011
-1.89748e-17
0.0423011
-2.39075e-17
0.0423011
-2.20438e-17
0.0423011
-2.18804e-17
0.0423011
-2.88417e-17
0.0423011
-1.9341e-17
0.0423011
-3.43544e-17
0.0423011
-2.03467e-17
0.0423011
-5.27859e-18
0.0423011
2.21638e-17
0.0423011
-1.75463e-18
-5.48637e-18
0.0423011
0.0423011
1.06227e-18
0.0423011
2.53959e-18
0.0423011
-5.67566e-18
0.0423011
-8.24917e-18
0.0423011
1.32046e-17
0.0423011
-7.89651e-18
0.0423011
8.22842e-18
0.0423011
1.2225e-17
0.0423011
2.26614e-17
0.0423011
1.86223e-17
0.0423011
-5.94723e-18
0.0423011
9.68184e-19
0.0423011
7.20122e-18
0.0423011
-2.16099e-20
0.0423011
-2.00148e-17
0.0423011
-1.04705e-17
0.0423011
9.15216e-18
0.0423011
-2.18741e-17
0.0423011
4.70948e-18
0.0423011
8.41666e-19
0.0423011
-1.28377e-17
0.0423011
-3.13459e-17
0.0423011
-2.55563e-17
0.0423011
-4.58811e-17
0.0423011
-1.54615e-17
0.0423011
1.11106e-17
0.0423011
-4.31412e-18
0.0423011
-9.39745e-18
0.0423011
-2.7703e-17
0.0423011
-1.52208e-17
0.0423011
-1.93546e-17
0.0423011
-2.2261e-17
0.0423011
9.65612e-18
0.0423011
1.44543e-17
0.0423011
3.73028e-18
0.0423011
-2.49976e-17
0.0423011
-4.12595e-17
6.6234e-18
0.0423011
0.0423011
8.64125e-19
0.0423011
-3.2127e-18
0.0423011
-3.25584e-18
0.0423011
1.48153e-17
0.0423011
-1.48157e-17
0.0423011
-7.77501e-18
0.0423011
4.14579e-18
0.0423011
1.59392e-17
0.0423011
2.11966e-17
0.0423011
1.01972e-17
0.0423011
-1.91838e-17
0.0423011
-1.48909e-17
0.0423011
-1.92544e-17
0.0423011
-1.96483e-17
0.0423011
-1.40142e-17
0.0423011
-2.12566e-18
0.0423011
-1.5372e-18
0.0423011
1.53267e-17
0.0423011
5.28663e-19
0.0423011
-9.42079e-18
0.0423011
6.29747e-18
0.0423011
-2.33358e-18
0.0423011
-1.63575e-17
0.0423011
-1.60382e-17
0.0423011
-3.68251e-17
0.0423011
-3.69432e-17
0.0423011
-1.43795e-17
0.0423011
-4.45153e-17
0.0423011
-3.54422e-17
0.0423011
-2.06907e-17
0.0423011
-1.22228e-17
0.0423011
2.02664e-18
0.0423011
-1.87067e-17
0.0423011
-1.17398e-18
0.0423011
6.50563e-18
0.0423011
-7.12327e-18
0.0423011
-6.09545e-18
-7.93924e-18
0.0423011
0.0423011
2.86562e-18
0.0423011
2.1373e-17
0.0423011
1.16043e-17
0.0423011
6.666e-19
0.0423011
3.59188e-19
0.0423011
2.78552e-17
0.0423011
9.89305e-18
0.0423011
-3.52377e-18
0.0423011
-8.51888e-19
0.0423011
-2.33476e-17
0.0423011
-6.45137e-18
0.0423011
-1.95915e-17
0.0423011
-3.38244e-17
0.0423011
-3.187e-17
0.0423011
1.40942e-17
0.0423011
2.41246e-18
0.0423011
7.59521e-18
0.0423011
-1.50367e-17
0.0423011
-1.37046e-17
0.0423011
-1.07223e-17
0.0423011
-2.55365e-18
0.0423011
7.79333e-18
0.0423011
1.53592e-17
0.0423011
-4.10215e-18
0.0423011
-9.90062e-18
0.0423011
-4.6755e-17
0.0423011
-2.61607e-17
0.0423011
-2.45356e-17
0.0423011
-2.0718e-17
0.0423011
-1.67799e-17
0.0423011
1.08227e-17
0.0423011
5.53828e-18
0.0423011
2.852e-17
0.0423011
1.6593e-17
0.0423011
-3.35022e-18
0.0423011
4.06998e-18
0.0423011
6.95257e-18
1.16912e-17
0.0423011
0.0423011
-9.78614e-18
0.0423011
-3.1164e-18
0.0423011
8.51538e-18
0.0423011
1.02489e-17
0.0423011
5.40969e-18
0.0423011
-9.85609e-18
0.0423011
-3.28825e-17
0.0423011
-1.44433e-17
0.0423011
-1.04378e-17
0.0423011
2.82947e-18
0.0423011
-1.05264e-17
0.0423011
-7.58292e-18
0.0423011
-6.31232e-19
0.0423011
1.50662e-17
0.0423011
-2.19156e-18
0.0423011
-1.30086e-17
0.0423011
-5.4927e-18
0.0423011
-1.1045e-17
0.0423011
-1.04239e-17
0.0423011
7.23108e-18
0.0423011
-7.12969e-18
0.0423011
-6.70062e-19
0.0423011
-1.90634e-18
0.0423011
-4.3646e-18
0.0423011
-1.03665e-18
0.0423011
4.91204e-18
0.0423011
-1.84442e-17
0.0423011
-1.44163e-17
0.0423011
-2.03936e-17
0.0423011
-1.84153e-17
0.0423011
-6.28851e-18
0.0423011
5.3446e-19
0.0423011
-1.32661e-17
0.0423011
2.66966e-18
0.0423011
7.99699e-18
0.0423011
7.82063e-18
0.0423011
1.81402e-17
1.39631e-17
0.0423011
0.0423011
-1.58519e-18
0.0423011
-2.58938e-17
0.0423011
-7.54586e-18
0.0423011
1.14009e-17
0.0423011
2.69325e-17
0.0423011
3.51744e-17
0.0423011
1.19864e-17
0.0423011
3.5763e-19
0.0423011
-1.76171e-17
0.0423011
-1.89322e-17
0.0423011
-2.98775e-17
0.0423011
7.60218e-18
0.0423011
2.61925e-17
0.0423011
2.27994e-17
0.0423011
8.87106e-18
0.0423011
3.4992e-18
0.0423011
-2.91685e-18
0.0423011
1.11987e-18
0.0423011
-9.11352e-19
0.0423011
-1.07356e-17
0.0423011
-1.01789e-17
0.0423011
-2.42033e-17
0.0423011
2.72311e-18
0.0423011
-2.49145e-18
0.0423011
-5.49628e-18
0.0423011
-1.79715e-17
0.0423011
-1.35792e-17
0.0423011
5.78825e-18
0.0423011
-3.93791e-18
0.0423011
-2.78177e-18
0.0423011
-8.11922e-18
0.0423011
1.64896e-17
0.0423011
1.96573e-17
0.0423011
9.87417e-18
0.0423011
-1.29084e-18
0.0423011
-4.04042e-18
0.0423011
1.15603e-17
1.99119e-17
0.0423011
0.0423011
5.83817e-18
0.0423011
8.93462e-19
0.0423011
4.48127e-19
0.0423011
5.72113e-18
0.0423011
5.79932e-18
0.0423011
2.5858e-18
0.0423011
4.46517e-18
0.0423011
-1.16073e-17
0.0423011
-6.89319e-18
0.0423011
-2.86096e-17
0.0423011
-9.2776e-18
0.0423011
-3.48924e-17
0.0423011
-1.02766e-17
0.0423011
2.43351e-18
0.0423011
1.78636e-17
0.0423011
1.49536e-17
0.0423011
1.36706e-17
0.0423011
1.47494e-17
0.0423011
1.36659e-17
0.0423011
-1.01191e-18
0.0423011
8.4274e-18
0.0423011
2.10397e-17
0.0423011
-7.61474e-18
0.0423011
-1.4044e-17
0.0423011
-3.79874e-17
0.0423011
-2.9974e-17
0.0423011
-1.10564e-17
0.0423011
-2.68682e-17
0.0423011
9.12808e-18
0.0423011
7.27379e-18
0.0423011
6.06036e-18
0.0423011
9.94867e-18
0.0423011
-1.35e-17
0.0423011
-4.74694e-19
0.0423011
2.55771e-17
0.0423011
3.15451e-17
0.0423011
1.44916e-17
2.64861e-17
0.0423011
0.0423011
4.28023e-19
0.0423011
4.35612e-18
0.0423011
1.533e-17
0.0423011
-7.79097e-18
0.0423011
2.03794e-18
0.0423011
-3.55359e-18
0.0423011
-1.13736e-17
0.0423011
-5.0833e-18
0.0423011
-1.27309e-17
0.0423011
-3.36197e-18
0.0423011
-2.85824e-17
0.0423011
-7.67738e-18
0.0423011
-2.34208e-17
0.0423011
-1.00611e-17
0.0423011
-1.32221e-17
0.0423011
2.25392e-17
0.0423011
8.62971e-18
0.0423011
9.26763e-18
0.0423011
2.24357e-17
0.0423011
2.77438e-17
0.0423011
-1.4465e-17
0.0423011
1.55382e-17
0.0423011
2.23734e-17
0.0423011
-7.02649e-18
0.0423011
5.69269e-18
0.0423011
-9.58647e-18
0.0423011
-4.28205e-18
0.0423011
8.80893e-18
0.0423011
2.65024e-18
0.0423011
4.83643e-18
0.0423011
4.73812e-18
0.0423011
-2.54419e-18
0.0423011
1.93107e-17
0.0423011
1.94641e-17
0.0423011
1.39029e-17
0.0423011
1.76187e-17
0.0423011
2.28586e-17
-9.40146e-18
0.0423011
0.0423011
-4.89093e-18
0.0423011
-8.96373e-18
0.0423011
-1.59347e-17
0.0423011
4.3224e-18
0.0423011
-9.55603e-18
0.0423011
-2.07195e-17
0.0423011
-9.82936e-18
0.0423011
-1.87071e-18
0.0423011
-4.70166e-18
0.0423011
-1.17785e-17
0.0423011
-1.73251e-19
0.0423011
1.86407e-18
0.0423011
8.55779e-18
0.0423011
-2.41163e-17
0.0423011
1.98664e-17
0.0423011
-1.62745e-17
0.0423011
1.95329e-18
0.0423011
3.02824e-17
0.0423011
1.99229e-17
0.0423011
-4.85478e-18
0.0423011
3.75474e-18
0.0423011
7.45092e-19
0.0423011
-1.07183e-17
0.0423011
-1.24212e-17
0.0423011
-1.56709e-17
0.0423011
-9.55491e-18
0.0423011
-2.80328e-18
0.0423011
4.35123e-18
0.0423011
9.19743e-18
0.0423011
2.68053e-17
0.0423011
5.30509e-18
0.0423011
-1.23155e-17
0.0423011
1.17752e-17
0.0423011
1.71692e-17
0.0423011
6.53582e-18
0.0423011
2.27734e-17
0.0423011
6.56942e-18
1.23595e-17
0.0423011
0.0423011
-2.68242e-18
0.0423011
1.40546e-17
0.0423011
4.86468e-18
0.0423011
-1.02304e-17
0.0423011
-2.08722e-17
0.0423011
1.12996e-19
0.0423011
-1.14949e-17
0.0423011
-4.86619e-18
0.0423011
8.77764e-18
0.0423011
2.82187e-17
0.0423011
1.5732e-17
0.0423011
1.40183e-17
0.0423011
3.62446e-18
0.0423011
2.25069e-17
0.0423011
5.76559e-18
0.0423011
1.20644e-17
0.0423011
2.96667e-17
0.0423011
1.94693e-17
0.0423011
7.45932e-18
0.0423011
7.67822e-18
0.0423011
-1.2252e-17
0.0423011
-2.24093e-17
0.0423011
-5.67333e-17
0.0423011
-4.4306e-17
0.0423011
-2.67773e-17
0.0423011
-1.26341e-17
0.0423011
-4.68616e-18
0.0423011
8.42912e-19
0.0423011
3.7613e-18
0.0423011
1.00066e-17
0.0423011
3.08354e-18
0.0423011
1.14342e-17
0.0423011
-4.98815e-18
0.0423011
-3.35334e-17
0.0423011
-4.0815e-18
0.0423011
-1.88071e-17
0.0423011
-8.27794e-19
-2.07395e-17
0.0423011
0.0423011
-1.79012e-18
0.0423011
-5.27108e-18
0.0423011
-5.39408e-18
0.0423011
-1.31099e-17
0.0423011
-7.98897e-18
0.0423011
3.69248e-18
0.0423011
1.78496e-17
0.0423011
5.15128e-18
0.0423011
1.55838e-17
0.0423011
1.87784e-17
0.0423011
-2.76406e-18
0.0423011
-1.41307e-17
0.0423011
9.20849e-18
0.0423011
-3.35595e-18
0.0423011
-8.81963e-18
0.0423011
1.94861e-17
0.0423011
1.30618e-17
0.0423011
4.65612e-18
0.0423011
-2.37196e-18
0.0423011
-9.71527e-18
0.0423011
9.82578e-18
0.0423011
-2.56086e-17
0.0423011
-1.37245e-17
0.0423011
-1.24674e-17
0.0423011
1.23865e-18
0.0423011
-2.83495e-17
0.0423011
-4.09335e-17
0.0423011
1.02997e-18
0.0423011
3.82152e-17
0.0423011
2.24827e-18
0.0423011
-8.9576e-18
0.0423011
1.4956e-17
0.0423011
9.10348e-18
0.0423011
9.0273e-18
0.0423011
-1.80531e-17
0.0423011
-9.36246e-18
0.0423011
-6.43712e-18
-3.3085e-18
0.0423011
0.0423011
-5.03232e-19
0.0423011
8.23924e-18
0.0423011
-5.96358e-18
0.0423011
-5.79348e-18
0.0423011
-7.16261e-19
0.0423011
5.0123e-18
0.0423011
1.41427e-18
0.0423011
-1.04409e-18
0.0423011
1.1347e-17
0.0423011
-3.81168e-18
0.0423011
-1.13034e-18
0.0423011
3.61009e-18
0.0423011
1.57008e-17
0.0423011
4.40051e-18
0.0423011
4.6512e-18
0.0423011
3.46746e-17
0.0423011
1.41769e-17
0.0423011
1.12214e-17
0.0423011
-4.00626e-18
0.0423011
1.65143e-17
0.0423011
1.93207e-17
0.0423011
1.30653e-17
0.0423011
1.64899e-17
0.0423011
4.28952e-17
0.0423011
-6.65573e-18
0.0423011
8.7053e-18
0.0423011
2.51298e-17
0.0423011
5.8507e-18
0.0423011
-2.33354e-17
0.0423011
-1.31742e-18
0.0423011
1.36142e-17
0.0423011
-3.31739e-17
0.0423011
-2.53898e-17
0.0423011
-1.62237e-17
0.0423011
-6.16585e-18
0.0423011
-3.3481e-17
0.0423011
-1.81851e-17
-1.87819e-17
0.0423011
0.0423011
5.4946e-18
0.0423011
-2.47007e-17
0.0423011
-1.51717e-17
0.0423011
1.29878e-18
0.0423011
-1.18963e-18
0.0423011
-1.22991e-17
0.0423011
8.65626e-19
0.0423011
-1.15143e-17
0.0423011
-2.08061e-17
0.0423011
-1.19906e-17
0.0423011
-3.07033e-18
0.0423011
5.20421e-18
0.0423011
-1.08741e-17
0.0423011
8.50625e-20
0.0423011
1.13913e-17
0.0423011
-8.90556e-18
0.0423011
-3.05451e-19
0.0423011
2.40699e-17
0.0423011
1.32848e-17
0.0423011
2.25429e-17
0.0423011
1.39502e-17
0.0423011
1.42823e-17
0.0423011
-7.68446e-18
0.0423011
1.14785e-17
0.0423011
6.29933e-18
0.0423011
1.37367e-17
0.0423011
4.52865e-18
0.0423011
2.15005e-18
0.0423011
6.47577e-18
0.0423011
2.06943e-17
0.0423011
-1.74689e-17
0.0423011
-7.59296e-18
0.0423011
-1.75279e-17
0.0423011
-3.87354e-18
0.0423011
-5.50417e-18
0.0423011
6.95905e-18
0.0423011
4.23295e-18
2.55419e-18
0.0423011
0.0423011
4.85404e-18
0.0423011
2.13269e-17
0.0423011
1.01231e-17
0.0423011
5.63231e-19
0.0423011
1.57996e-17
0.0423011
6.60019e-19
0.0423011
3.20849e-18
0.0423011
-5.42676e-18
0.0423011
-1.94007e-17
0.0423011
-6.75961e-18
0.0423011
-4.02844e-18
0.0423011
-1.25092e-17
0.0423011
-2.17877e-18
0.0423011
-4.44874e-18
0.0423011
-2.21703e-18
0.0423011
-5.56262e-18
0.0423011
-1.7102e-17
0.0423011
-2.33725e-17
0.0423011
1.2925e-18
0.0423011
3.012e-17
0.0423011
9.22947e-18
0.0423011
2.41198e-17
0.0423011
1.09817e-17
0.0423011
1.35026e-17
0.0423011
-6.64371e-18
0.0423011
2.78947e-18
0.0423011
-4.00085e-18
0.0423011
1.51673e-18
0.0423011
-1.81679e-17
0.0423011
-9.10144e-18
0.0423011
2.90368e-17
0.0423011
-1.28982e-18
0.0423011
2.2425e-18
0.0423011
-1.12154e-17
0.0423011
9.67004e-21
0.0423011
3.75286e-18
0.0423011
2.04638e-17
2.55445e-17
0.0423011
0.0423011
-1.73802e-18
0.0423011
6.81656e-18
0.0423011
-1.61455e-18
0.0423011
2.69286e-18
0.0423011
-9.24255e-18
0.0423011
-1.00555e-18
0.0423011
-2.47751e-17
0.0423011
1.36506e-18
0.0423011
-6.08051e-20
0.0423011
-5.09671e-18
0.0423011
5.35811e-18
0.0423011
2.89093e-17
0.0423011
-4.50669e-19
0.0423011
1.62319e-18
0.0423011
-1.58959e-17
0.0423011
-1.79495e-17
0.0423011
-2.92026e-17
0.0423011
-1.18698e-17
0.0423011
-3.29884e-18
0.0423011
-3.44359e-17
0.0423011
1.00582e-17
0.0423011
1.56096e-18
0.0423011
2.41523e-17
0.0423011
1.903e-18
0.0423011
-2.11746e-17
0.0423011
-8.58061e-18
0.0423011
5.98472e-18
0.0423011
6.06136e-18
0.0423011
-2.50998e-18
0.0423011
-1.07019e-18
0.0423011
-3.99906e-18
0.0423011
7.81125e-18
0.0423011
9.79067e-18
0.0423011
7.13017e-18
0.0423011
2.53771e-18
0.0423011
3.44102e-18
0.0423011
-1.13435e-18
2.25518e-18
0.0423011
0.0423011
-1.49126e-17
0.0423011
-7.68896e-18
0.0423011
3.2172e-19
0.0423011
-3.55261e-18
0.0423011
-7.58097e-18
0.0423011
-1.11179e-17
0.0423011
2.51e-18
0.0423011
6.0106e-18
0.0423011
1.50039e-17
0.0423011
3.52429e-18
0.0423011
5.66768e-18
0.0423011
1.66868e-17
0.0423011
-3.81906e-18
0.0423011
3.29255e-18
0.0423011
-5.09489e-18
0.0423011
-1.12435e-17
0.0423011
-2.38772e-17
0.0423011
-2.35124e-17
0.0423011
-1.39858e-17
0.0423011
-1.94436e-17
0.0423011
-1.49535e-17
0.0423011
-1.28496e-17
0.0423011
-1.22249e-17
0.0423011
-2.58739e-18
0.0423011
4.77077e-17
0.0423011
1.90435e-17
0.0423011
3.14681e-17
0.0423011
8.80033e-18
0.0423011
3.4106e-17
0.0423011
2.22569e-17
0.0423011
1.62986e-17
0.0423011
4.06152e-18
0.0423011
8.78512e-18
0.0423011
2.00611e-17
0.0423011
2.34463e-17
0.0423011
3.34399e-18
0.0423011
-4.78599e-18
9.4207e-18
0.0423011
0.0423011
-4.01924e-18
0.0423011
-1.68434e-18
0.0423011
-8.40119e-19
0.0423011
-4.69436e-18
0.0423011
-1.94467e-18
0.0423011
-2.12097e-18
0.0423011
2.18503e-17
0.0423011
1.54893e-17
0.0423011
2.71636e-17
0.0423011
7.33646e-18
0.0423011
8.78516e-18
0.0423011
5.09905e-18
0.0423011
2.58387e-17
0.0423011
1.19876e-17
0.0423011
-6.10865e-18
0.0423011
-2.7037e-17
0.0423011
-6.19408e-18
0.0423011
1.03296e-17
0.0423011
8.19494e-18
0.0423011
9.84326e-18
0.0423011
-1.49588e-17
0.0423011
8.81969e-18
0.0423011
1.33549e-17
0.0423011
1.85235e-17
0.0423011
-9.7391e-18
0.0423011
4.56533e-18
0.0423011
-1.26189e-18
0.0423011
1.01491e-18
0.0423011
6.17272e-18
0.0423011
1.98939e-18
0.0423011
4.12107e-18
0.0423011
-1.22642e-17
0.0423011
-4.51937e-18
0.0423011
9.86572e-18
0.0423011
2.57234e-17
0.0423011
2.44832e-17
0.0423011
4.67838e-18
1.88987e-17
0.0423011
0.0423011
-2.22693e-18
0.0423011
6.64766e-18
0.0423011
-4.03624e-18
0.0423011
-1.06785e-17
0.0423011
1.34571e-17
0.0423011
1.9837e-17
0.0423011
3.19276e-18
0.0423011
1.28387e-17
0.0423011
7.40689e-18
0.0423011
2.38273e-17
0.0423011
1.68763e-17
0.0423011
9.02098e-18
0.0423011
2.31563e-17
0.0423011
1.29022e-17
0.0423011
4.76519e-18
0.0423011
-2.23198e-19
0.0423011
1.36413e-18
0.0423011
-2.27302e-17
0.0423011
2.04039e-17
0.0423011
7.78766e-18
0.0423011
5.68765e-18
0.0423011
-9.65411e-18
0.0423011
-1.19249e-17
0.0423011
-2.73851e-17
0.0423011
5.12955e-18
0.0423011
-3.3687e-18
0.0423011
6.27146e-18
0.0423011
1.04279e-17
0.0423011
1.96991e-17
0.0423011
-2.0016e-18
0.0423011
-3.1416e-17
0.0423011
-2.23562e-17
0.0423011
-5.52834e-17
0.0423011
8.84334e-18
0.0423011
-1.72811e-17
0.0423011
-1.14709e-17
0.0423011
1.34935e-17
-1.84406e-17
0.0423011
0.0423011
4.92077e-18
0.0423011
-2.95899e-18
0.0423011
4.60843e-18
0.0423011
3.59538e-17
0.0423011
2.29572e-17
0.0423011
7.20637e-18
0.0423011
6.69162e-18
0.0423011
1.5796e-18
0.0423011
-3.36503e-18
0.0423011
2.21333e-20
0.0423011
1.50596e-17
0.0423011
2.63101e-17
0.0423011
-3.42675e-18
0.0423011
-1.34444e-18
0.0423011
-1.8247e-17
0.0423011
1.36921e-17
0.0423011
2.75575e-17
0.0423011
2.99536e-17
0.0423011
5.72395e-18
0.0423011
-1.41751e-17
0.0423011
-1.46106e-17
0.0423011
-2.74747e-17
0.0423011
-2.49982e-17
0.0423011
-2.27966e-17
0.0423011
-2.61617e-17
0.0423011
4.20729e-17
0.0423011
2.56567e-17
0.0423011
2.53089e-17
0.0423011
-1.15128e-17
0.0423011
-2.48162e-17
0.0423011
-1.38138e-17
0.0423011
-5.67754e-18
0.0423011
-2.16519e-17
0.0423011
-5.23925e-17
0.0423011
-2.38499e-17
0.0423011
-4.69688e-18
0.0423011
1.04637e-18
-1.68996e-18
0.0423011
0.0423011
-2.52157e-18
0.0423011
9.25491e-18
0.0423011
7.05012e-18
0.0423011
9.2433e-18
0.0423011
3.04138e-18
0.0423011
-1.4125e-17
0.0423011
-6.0826e-18
0.0423011
-6.74388e-18
0.0423011
1.65034e-17
0.0423011
1.56874e-17
0.0423011
3.4186e-18
0.0423011
-1.9966e-18
0.0423011
-3.63923e-17
0.0423011
-9.99417e-18
0.0423011
1.02203e-18
0.0423011
5.83337e-18
0.0423011
1.7999e-17
0.0423011
1.22348e-17
0.0423011
1.30167e-18
0.0423011
-1.22611e-17
0.0423011
5.36815e-18
0.0423011
1.81746e-17
0.0423011
-8.94103e-19
0.0423011
1.52567e-17
0.0423011
1.13086e-17
0.0423011
-1.39957e-17
0.0423011
1.48945e-17
0.0423011
-2.23264e-18
0.0423011
6.40406e-18
0.0423011
-1.4986e-18
0.0423011
5.42287e-18
0.0423011
9.73629e-18
0.0423011
-1.54277e-17
0.0423011
-1.36757e-17
0.0423011
-1.11443e-17
0.0423011
-6.90224e-18
0.0423011
-4.1254e-18
9.22849e-18
0.0423011
0.0423011
-8.83844e-18
0.0423011
-5.75135e-18
0.0423011
-1.49528e-17
0.0423011
3.47431e-18
0.0423011
1.44676e-17
0.0423011
4.38317e-18
0.0423011
-1.1175e-18
0.0423011
7.37602e-18
0.0423011
4.39217e-18
0.0423011
9.52274e-18
0.0423011
9.3872e-18
0.0423011
-1.15374e-17
0.0423011
1.85519e-17
0.0423011
-1.25877e-17
0.0423011
1.46989e-18
0.0423011
6.77093e-18
0.0423011
1.67254e-17
0.0423011
1.60138e-18
0.0423011
1.87487e-17
0.0423011
3.48785e-17
0.0423011
2.84878e-18
0.0423011
2.12181e-17
0.0423011
3.45038e-17
0.0423011
2.39503e-17
0.0423011
5.9443e-17
0.0423011
3.56762e-17
0.0423011
2.35284e-17
0.0423011
2.15021e-17
0.0423011
2.02999e-17
0.0423011
1.66206e-17
0.0423011
1.27321e-17
0.0423011
1.53678e-17
0.0423011
1.92853e-17
0.0423011
9.31629e-18
0.0423011
-4.13538e-18
0.0423011
-2.20685e-17
0.0423011
-7.26848e-18
-4.98145e-19
0.0423011
0.0423011
1.57001e-17
0.0423011
-8.46101e-18
0.0423011
9.7163e-19
0.0423011
1.06981e-18
0.0423011
-8.76376e-18
0.0423011
1.66826e-17
0.0423011
8.66502e-18
0.0423011
1.0958e-17
0.0423011
2.73675e-17
0.0423011
7.95842e-18
0.0423011
7.58955e-18
0.0423011
-8.90371e-18
0.0423011
4.04152e-18
0.0423011
1.86941e-19
0.0423011
1.55245e-18
0.0423011
9.87314e-18
0.0423011
-1.23724e-17
0.0423011
-1.56487e-17
0.0423011
5.54331e-18
0.0423011
1.21874e-17
0.0423011
3.07304e-17
0.0423011
2.28164e-17
0.0423011
3.0216e-17
0.0423011
4.2241e-17
0.0423011
2.94429e-17
0.0423011
3.91747e-17
0.0423011
3.40571e-17
0.0423011
3.02893e-17
0.0423011
4.64878e-17
0.0423011
1.63172e-17
0.0423011
1.69294e-17
0.0423011
2.67195e-17
0.0423011
2.0088e-17
0.0423011
7.08242e-19
0.0423011
1.86841e-17
0.0423011
1.13733e-17
0.0423011
9.27374e-18
-5.99328e-18
0.0423011
0.0423011
1.69365e-18
0.0423011
5.38812e-18
0.0423011
2.19707e-18
0.0423011
9.02505e-18
0.0423011
-1.28533e-17
0.0423011
-1.80555e-18
0.0423011
2.51282e-17
0.0423011
3.57338e-17
0.0423011
-4.36459e-18
0.0423011
2.10477e-17
0.0423011
2.9053e-18
0.0423011
1.58353e-17
0.0423011
6.94238e-18
0.0423011
6.08468e-18
0.0423011
3.93183e-17
0.0423011
-1.38748e-18
0.0423011
-5.92731e-18
0.0423011
1.22571e-17
0.0423011
-1.6868e-17
0.0423011
-1.69095e-18
0.0423011
8.03786e-18
0.0423011
2.12234e-17
0.0423011
2.59716e-17
0.0423011
2.07932e-17
0.0423011
7.12728e-17
0.0423011
1.7368e-17
0.0423011
2.68619e-17
0.0423011
2.8962e-17
0.0423011
3.5511e-17
0.0423011
2.97607e-17
0.0423011
5.35672e-17
0.0423011
4.77721e-17
0.0423011
5.20608e-17
0.0423011
5.04356e-17
0.0423011
4.12744e-17
0.0423011
1.16547e-17
0.0423011
1.29919e-17
-3.74643e-19
0.0423011
0.0423011
3.07056e-18
0.0423011
1.03591e-17
0.0423011
1.14407e-17
0.0423011
-8.28375e-18
0.0423011
-1.5729e-17
0.0423011
-2.32101e-17
0.0423011
-1.45259e-17
0.0423011
-2.29098e-17
0.0423011
-1.09979e-17
0.0423011
-2.46629e-17
0.0423011
5.5893e-18
0.0423011
3.64517e-17
0.0423011
3.87123e-17
0.0423011
2.10793e-17
0.0423011
-8.38828e-19
0.0423011
-1.20468e-17
0.0423011
3.19672e-18
0.0423011
5.41225e-18
0.0423011
8.38718e-18
0.0423011
-4.54651e-18
0.0423011
7.43556e-18
0.0423011
4.90654e-18
0.0423011
8.69356e-18
0.0423011
2.7647e-18
0.0423011
5.09982e-18
0.0423011
1.36439e-17
0.0423011
3.90143e-17
0.0423011
3.79462e-17
0.0423011
1.86366e-17
0.0423011
2.11472e-17
0.0423011
1.73367e-17
0.0423011
5.64173e-17
0.0423011
4.12232e-17
0.0423011
3.8726e-17
0.0423011
2.67367e-17
0.0423011
1.81109e-17
0.0423011
2.8393e-18
4.74985e-18
0.0423011
0.0423011
6.95187e-18
0.0423011
1.50153e-17
0.0423011
7.96438e-18
0.0423011
9.01175e-18
0.0423011
1.37812e-17
0.0423011
-4.97428e-18
0.0423011
-4.47368e-18
0.0423011
-5.45619e-18