/*--------------------------------*- C++ -*----------------------------------*\
| =========                 |                                                 |
| \\      /  F ield         | OpenFOAM: The Open Source CFD Toolbox           |
|  \\    /   O peration     | Version:  v1812                                 |
|   \\  /    A nd           | Web:      www.OpenFOAM.com                      |
|    \\/     M anipulation  |                                                 |
\*---------------------------------------------------------------------------*/
FoamFile
{
    version     2.0;
    format      ascii;
    class       volVectorField;
    location    "0.004";
    object      U;
}
// * * * * * * * * * * * * * * * * * * * * * * * * * * * * * * * * * * * * * //

dimensions      [0 1 -1 0 0 0 0];


internalField   nonuniform List<vector> 
8475
(
(851.84 3.06604e-14 0)
(851.84 1.66893e-13 0)
(851.84 4.69425e-14 0)
(851.84 -1.0088e-13 0)
(851.84 -2.48845e-13 0)
(851.84 -2.31003e-13 0)
(851.84 -2.56161e-13 0)
(851.84 -1.54008e-13 0)
(851.84 -4.39192e-13 0)
(851.84 -5.28428e-13 0)
(851.84 -4.61927e-13 0)
(851.84 -4.96514e-13 0)
(851.84 -4.4288e-13 0)
(851.84 -3.98322e-13 0)
(851.84 -2.7746e-13 0)
(851.84 5.56939e-13 0)
(851.84 1.14561e-12 0)
(851.84 1.08111e-12 0)
(851.84 1.88021e-12 0)
(851.84 1.83351e-12 0)
(851.84 2.2548e-12 0)
(851.84 2.30915e-12 0)
(851.84 2.42569e-12 0)
(851.84 2.83732e-12 0)
(851.84 3.18082e-12 0)
(851.84 3.12794e-12 0)
(851.84 3.50976e-12 0)
(851.84 3.11386e-12 0)
(851.84 3.47268e-12 0)
(851.84 2.35548e-12 0)
(851.84 2.42105e-12 0)
(851.84 5.39319e-13 0)
(851.84 2.22159e-10 0)
(851.84 -8.10653e-09 0)
(851.84 8.9135e-07 0)
(851.84 -3.21486e-05 0)
(851.832 0.0040889 0)
(851.349 -0.155857 0)
(851.84 1.81987e-13 0)
(851.84 5.02028e-15 0)
(851.84 -1.69182e-13 0)
(851.84 -1.29686e-13 0)
(851.84 -2.57564e-13 0)
(851.84 -2.43006e-13 0)
(851.84 -3.2509e-13 0)
(851.84 -4.64156e-13 0)
(851.84 -4.12072e-13 0)
(851.84 -5.49481e-13 0)
(851.84 -5.5779e-13 0)
(851.84 -4.98983e-13 0)
(851.84 -7.53387e-13 0)
(851.84 -7.68921e-13 0)
(851.84 -4.72871e-13 0)
(851.84 1.00741e-13 0)
(851.84 -9.16492e-14 0)
(851.84 1.6244e-13 0)
(851.84 7.09402e-13 0)
(851.84 9.71962e-13 0)
(851.84 1.1882e-12 0)
(851.84 1.26734e-12 0)
(851.84 1.50413e-12 0)
(851.84 1.4554e-12 0)
(851.84 1.69749e-12 0)
(851.84 1.43452e-12 0)
(851.84 1.61281e-12 0)
(851.84 1.53646e-12 0)
(851.84 1.38605e-12 0)
(851.84 1.28202e-12 0)
(851.84 1.23277e-12 0)
(851.84 3.74738e-12 0)
(851.84 1.45538e-10 0)
(851.84 1.20616e-08 0)
(851.84 4.48885e-07 0)
(851.84 5.08411e-05 0)
(851.837 0.00131 0)
(851.72 0.193085 0)
(851.84 -2.96259e-14 0)
(851.84 -2.36063e-13 0)
(851.84 -1.39863e-13 0)
(851.84 -1.87736e-13 0)
(851.84 -8.70884e-14 0)
(851.84 -5.6122e-13 0)
(851.84 -6.03881e-13 0)
(851.84 -7.35621e-13 0)
(851.84 -3.95971e-13 0)
(851.84 -3.34906e-13 0)
(851.84 -3.41438e-13 0)
(851.84 -4.92306e-13 0)
(851.84 -6.80884e-13 0)
(851.84 -6.55125e-13 0)
(851.84 -6.60227e-13 0)
(851.84 -2.9906e-13 0)
(851.84 -4.20146e-13 0)
(851.84 -4.36605e-13 0)
(851.84 2.69695e-14 0)
(851.84 4.38852e-13 0)
(851.84 2.56915e-13 0)
(851.84 8.3679e-13 0)
(851.84 9.8355e-13 0)
(851.84 1.25335e-12 0)
(851.84 1.21243e-12 0)
(851.84 1.47115e-12 0)
(851.84 1.44908e-12 0)
(851.84 1.5151e-12 0)
(851.84 1.18667e-12 0)
(851.84 1.32835e-12 0)
(851.84 1.03064e-12 0)
(851.84 2.11477e-12 0)
(851.84 4.43098e-11 0)
(851.84 5.41233e-09 0)
(851.84 8.6951e-08 0)
(851.84 1.50897e-05 0)
(851.84 0.000146589 0)
(851.823 0.0330779 0)
(851.84 -2.02026e-13 0)
(851.84 -3.4866e-13 0)
(851.84 1.98675e-15 0)
(851.84 -2.09127e-13 0)
(851.84 -2.41146e-13 0)
(851.84 -4.09963e-13 0)
(851.84 -3.09675e-13 0)
(851.84 -5.24938e-14 0)
(851.84 -1.55383e-13 0)
(851.84 -2.68997e-13 0)
(851.84 -2.76522e-13 0)
(851.84 -1.75979e-13 0)
(851.84 -3.32542e-13 0)
(851.84 -2.16775e-13 0)
(851.84 -5.77804e-13 0)
(851.84 -8.40268e-13 0)
(851.84 -6.7335e-13 0)
(851.84 -5.85713e-13 0)
(851.84 -3.13964e-13 0)
(851.84 -1.28916e-13 0)
(851.84 2.26478e-13 0)
(851.84 2.18011e-13 0)
(851.84 5.95302e-13 0)
(851.84 7.77496e-13 0)
(851.84 1.01982e-12 0)
(851.84 9.89042e-13 0)
(851.84 1.01189e-12 0)
(851.84 1.08966e-12 0)
(851.84 1.02473e-12 0)
(851.84 1.01757e-12 0)
(851.84 8.12955e-13 0)
(851.84 1.52804e-12 0)
(851.84 2.52021e-13 0)
(851.84 1.10573e-09 0)
(851.84 5.25251e-10 0)
(851.84 2.01496e-06 0)
(851.84 1.2199e-06 0)
(851.839 0.00310971 0)
(851.84 -7.34417e-14 0)
(851.84 4.57003e-15 0)
(851.84 -3.8954e-15 0)
(851.84 5.52951e-15 0)
(851.84 -1.16853e-13 0)
(851.84 -1.07653e-13 0)
(851.84 -8.12044e-14 0)
(851.84 -3.92192e-14 0)
(851.84 -1.57319e-13 0)
(851.84 -2.37385e-13 0)
(851.84 -2.81489e-13 0)
(851.84 -6.84088e-13 0)
(851.84 -2.4598e-13 0)
(851.84 -4.50054e-13 0)
(851.84 -5.20196e-13 0)
(851.84 -5.80942e-13 0)
(851.84 -4.66547e-13 0)
(851.84 -6.10564e-13 0)
(851.84 -6.02809e-13 0)
(851.84 -2.82279e-13 0)
(851.84 -3.18984e-13 0)
(851.84 -3.0073e-13 0)
(851.84 -8.26809e-14 0)
(851.84 3.88151e-14 0)
(851.84 4.74629e-14 0)
(851.84 1.15542e-13 0)
(851.84 9.0807e-14 0)
(851.84 -1.11232e-14 0)
(851.84 4.8937e-13 0)
(851.84 4.71395e-13 0)
(851.84 6.75872e-13 0)
(851.84 7.43573e-13 0)
(851.84 5.55941e-13 0)
(851.84 9.44518e-11 0)
(851.84 -1.44313e-10 0)
(851.84 1.27104e-07 0)
(851.84 -7.55015e-08 0)
(851.84 0.000175345 0)
(851.84 -7.62208e-14 0)
(851.84 -9.65096e-15 0)
(851.84 -1.49647e-13 0)
(851.84 -8.07057e-14 0)
(851.84 1.8371e-13 0)
(851.84 3.3195e-13 0)
(851.84 3.72162e-13 0)
(851.84 1.30394e-13 0)
(851.84 -1.6068e-14 0)
(851.84 -5.19377e-14 0)
(851.84 -1.13077e-13 0)
(851.84 3.13941e-14 0)
(851.84 -2.51741e-13 0)
(851.84 -2.37235e-13 0)
(851.84 -6.40518e-14 0)
(851.84 -1.67145e-13 0)
(851.84 -2.70757e-13 0)
(851.84 -3.58719e-13 0)
(851.84 -4.49041e-13 0)
(851.84 -3.15867e-13 0)
(851.84 -6.57762e-13 0)
(851.84 -5.84954e-13 0)
(851.84 -6.93348e-13 0)
(851.84 -6.80495e-13 0)
(851.84 -6.1542e-13 0)
(851.84 -2.68043e-13 0)
(851.84 -3.37946e-13 0)
(851.84 -1.76804e-14 0)
(851.84 6.63617e-14 0)
(851.84 4.1748e-13 0)
(851.84 3.80635e-13 0)
(851.84 1.57018e-13 0)
(851.84 -1.02985e-13 0)
(851.84 3.51183e-12 0)
(851.84 -1.03885e-11 0)
(851.84 5.07826e-09 0)
(851.84 -3.82966e-09 0)
(851.84 7.07205e-06 0)
(851.84 8.49946e-14 0)
(851.84 -1.31564e-14 0)
(851.84 -1.84606e-13 0)
(851.84 -8.30136e-14 0)
(851.84 -1.06853e-13 0)
(851.84 -1.36719e-13 0)
(851.84 -2.95274e-14 0)
(851.84 -1.09567e-13 0)
(851.84 -2.90106e-13 0)
(851.84 -2.4755e-13 0)
(851.84 -1.47234e-13 0)
(851.84 -5.56926e-15 0)
(851.84 -1.3216e-13 0)
(851.84 -3.88274e-14 0)
(851.84 1.57922e-14 0)
(851.84 -1.2118e-13 0)
(851.84 -2.85149e-14 0)
(851.84 -1.82382e-13 0)
(851.84 -5.11722e-13 0)
(851.84 -6.77321e-13 0)
(851.84 -8.03294e-13 0)
(851.84 -6.43874e-13 0)
(851.84 -7.61518e-13 0)
(851.84 -6.4001e-13 0)
(851.84 -5.1461e-13 0)
(851.84 -3.29155e-13 0)
(851.84 -2.71273e-13 0)
(851.84 -2.23759e-13 0)
(851.84 -1.63373e-13 0)
(851.84 -1.75611e-13 0)
(851.84 7.6328e-14 0)
(851.84 2.20888e-14 0)
(851.84 2.74398e-13 0)
(851.84 -3.30139e-13 0)
(851.84 -1.32789e-12 0)
(851.84 1.42735e-10 0)
(851.84 -3.51798e-11 0)
(851.84 2.15857e-07 0)
(851.84 3.07497e-14 0)
(851.84 -1.38863e-13 0)
(851.84 -1.69532e-13 0)
(851.84 -2.80592e-13 0)
(851.84 -2.88455e-13 0)
(851.84 -2.66286e-13 0)
(851.84 -3.44003e-13 0)
(851.84 -2.83868e-13 0)
(851.84 -1.92118e-13 0)
(851.84 -1.95572e-13 0)
(851.84 -1.19167e-13 0)
(851.84 -2.99569e-14 0)
(851.84 7.65664e-14 0)
(851.84 4.16353e-13 0)
(851.84 3.32803e-14 0)
(851.84 1.19743e-13 0)
(851.84 -1.18661e-13 0)
(851.84 -2.18536e-13 0)
(851.84 -4.14548e-13 0)
(851.84 -1.07573e-12 0)
(851.84 -8.96025e-13 0)
(851.84 -8.90263e-13 0)
(851.84 -9.71511e-13 0)
(851.84 -7.73515e-13 0)
(851.84 -7.29336e-13 0)
(851.84 -5.47247e-13 0)
(851.84 -3.61586e-13 0)
(851.84 -3.77196e-13 0)
(851.84 -2.31935e-13 0)
(851.84 -2.59236e-13 0)
(851.84 -2.75718e-13 0)
(851.84 -9.02466e-14 0)
(851.84 -3.09913e-14 0)
(851.84 1.89006e-13 0)
(851.84 -2.33686e-13 0)
(851.84 9.29357e-13 0)
(851.84 -4.05278e-12 0)
(851.84 5.42794e-09 0)
(851.84 -1.3895e-14 0)
(851.84 1.94251e-13 0)
(851.84 -8.88929e-15 0)
(851.84 -1.80099e-13 0)
(851.84 -3.21588e-13 0)
(851.84 -1.5749e-13 0)
(851.84 -8.78789e-14 0)
(851.84 -1.5761e-13 0)
(851.84 -1.32848e-13 0)
(851.84 -9.21757e-14 0)
(851.84 -2.71984e-13 0)
(851.84 -4.743e-13 0)
(851.84 -3.27961e-13 0)
(851.84 -3.38903e-13 0)
(851.84 -2.93306e-13 0)
(851.84 -4.38819e-13 0)
(851.84 -6.19196e-13 0)
(851.84 -4.97608e-13 0)
(851.84 -2.24262e-13 0)
(851.84 -3.08676e-13 0)
(851.84 -4.28227e-13 0)
(851.84 -6.99255e-13 0)
(851.84 -6.94374e-13 0)
(851.84 -1.01038e-12 0)
(851.84 -9.61717e-13 0)
(851.84 -8.44248e-13 0)
(851.84 -6.3136e-13 0)
(851.84 -4.65706e-13 0)
(851.84 -5.10012e-13 0)
(851.84 -2.00786e-13 0)
(851.84 -2.27611e-13 0)
(851.84 -1.43963e-13 0)
(851.84 -1.64687e-14 0)
(851.84 6.89295e-14 0)
(851.84 8.11921e-14 0)
(851.84 5.08976e-13 0)
(851.84 1.76565e-13 0)
(851.84 1.26813e-10 0)
(851.84 -6.30137e-14 0)
(851.84 1.56491e-13 0)
(851.84 8.54233e-14 0)
(851.84 6.5771e-14 0)
(851.84 9.32437e-14 0)
(851.84 1.13299e-13 0)
(851.84 -2.33265e-13 0)
(851.84 -2.05008e-13 0)
(851.84 -8.84653e-14 0)
(851.84 -2.02352e-13 0)
(851.84 -3.55266e-13 0)
(851.84 -4.36635e-13 0)
(851.84 -3.66451e-13 0)
(851.84 -7.6933e-13 0)
(851.84 -5.58327e-13 0)
(851.84 -5.56836e-13 0)
(851.84 -3.26635e-13 0)
(851.84 -2.91261e-13 0)
(851.84 -4.68002e-13 0)
(851.84 -4.54775e-13 0)
(851.84 -3.88978e-13 0)
(851.84 -6.43261e-13 0)
(851.84 -5.54811e-13 0)
(851.84 -5.18562e-13 0)
(851.84 -4.89849e-13 0)
(851.84 -7.60302e-13 0)
(851.84 -6.42115e-13 0)
(851.84 -5.29339e-13 0)
(851.84 -3.51931e-13 0)
(851.84 -3.2222e-13 0)
(851.84 -1.7568e-13 0)
(851.84 -2.3247e-13 0)
(851.84 -2.8684e-13 0)
(851.84 -1.89335e-13 0)
(851.84 -1.02192e-13 0)
(851.84 -1.0113e-13 0)
(851.84 -1.17369e-13 0)
(851.84 1.01684e-12 0)
(851.84 6.77792e-14 0)
(851.84 -7.80291e-14 0)
(851.84 2.16899e-13 0)
(851.84 1.26402e-13 0)
(851.84 2.38952e-13 0)
(851.84 2.64781e-13 0)
(851.84 3.18741e-13 0)
(851.84 1.03305e-13 0)
(851.84 8.31499e-15 0)
(851.84 -8.58225e-14 0)
(851.84 3.22299e-14 0)
(851.84 2.40569e-14 0)
(851.84 -5.46022e-13 0)
(851.84 -7.28118e-13 0)
(851.84 -7.04636e-13 0)
(851.84 -6.83454e-13 0)
(851.84 -4.86404e-13 0)
(851.84 -2.31104e-13 0)
(851.84 -2.92895e-13 0)
(851.84 -3.74941e-13 0)
(851.84 -5.25601e-13 0)
(851.84 -4.75547e-13 0)
(851.84 -4.4002e-13 0)
(851.84 -1.26151e-13 0)
(851.84 -8.1898e-14 0)
(851.84 -1.36058e-13 0)
(851.84 -3.37045e-13 0)
(851.84 -3.67006e-13 0)
(851.84 -4.4182e-13 0)
(851.84 -3.76087e-13 0)
(851.84 -4.1865e-13 0)
(851.84 -5.08852e-13 0)
(851.84 -5.29437e-13 0)
(851.84 -3.21139e-13 0)
(851.84 -1.35972e-13 0)
(851.84 1.84835e-13 0)
(851.84 4.17632e-14 0)
(851.84 -5.89003e-14 0)
(851.84 3.78704e-14 0)
(851.84 -1.14489e-15 0)
(851.84 -6.26369e-14 0)
(851.84 -5.61639e-14 0)
(851.84 2.63778e-14 0)
(851.84 -4.57127e-14 0)
(851.84 9.89492e-14 0)
(851.84 2.13521e-13 0)
(851.84 2.42976e-13 0)
(851.84 1.11882e-13 0)
(851.84 1.53157e-14 0)
(851.84 2.76698e-13 0)
(851.84 -3.29383e-13 0)
(851.84 -4.19814e-13 0)
(851.84 -4.76274e-13 0)
(851.84 -4.1195e-13 0)
(851.84 -2.71514e-13 0)
(851.84 -1.99359e-13 0)
(851.84 5.00438e-14 0)
(851.84 -2.0964e-13 0)
(851.84 -4.32173e-13 0)
(851.84 -4.23961e-13 0)
(851.84 -5.09481e-13 0)
(851.84 -5.96397e-13 0)
(851.84 8.1879e-14 0)
(851.84 2.54723e-13 0)
(851.84 -2.44323e-14 0)
(851.84 -2.61119e-13 0)
(851.84 -4.34128e-13 0)
(851.84 -6.59606e-13 0)
(851.84 -8.14547e-13 0)
(851.84 -7.13018e-13 0)
(851.84 -6.38177e-13 0)
(851.84 -5.00574e-13 0)
(851.84 -3.98252e-13 0)
(851.84 -3.24848e-13 0)
(851.84 -5.68385e-13 0)
(851.84 -2.08584e-13 0)
(851.84 -2.37648e-14 0)
(851.84 -1.46936e-13 0)
(851.84 -2.08244e-13 0)
(851.84 -2.0694e-14 0)
(851.84 -1.76262e-13 0)
(851.84 -1.94031e-13 0)
(851.84 5.2217e-14 0)
(851.84 4.55258e-13 0)
(851.84 4.01481e-13 0)
(851.84 1.84598e-13 0)
(851.84 -1.89592e-13 0)
(851.84 -2.6497e-13 0)
(851.84 -3.0074e-13 0)
(851.84 -3.16441e-13 0)
(851.84 -2.67113e-13 0)
(851.84 -4.458e-14 0)
(851.84 1.33592e-13 0)
(851.84 1.8583e-13 0)
(851.84 8.11718e-14 0)
(851.84 4.7956e-14 0)
(851.84 -7.07739e-14 0)
(851.84 -2.67604e-13 0)
(851.84 -5.79611e-13 0)
(851.84 -5.02426e-13 0)
(851.84 -4.95863e-13 0)
(851.84 -4.44576e-13 0)
(851.84 -3.09283e-13 0)
(851.84 -6.25773e-13 0)
(851.84 -6.55904e-13 0)
(851.84 -5.17749e-13 0)
(851.84 -4.2851e-13 0)
(851.84 -2.65906e-13 0)
(851.84 -2.19174e-13 0)
(851.84 -8.12959e-15 0)
(851.84 7.31359e-14 0)
(851.84 -3.21416e-13 0)
(851.84 -3.82184e-13 0)
(851.84 -2.879e-13 0)
(851.84 3.48114e-14 0)
(851.84 2.26793e-13 0)
(851.84 1.72014e-13 0)
(851.84 7.53379e-14 0)
(851.84 1.32136e-14 0)
(851.84 1.30084e-13 0)
(851.84 2.25169e-13 0)
(851.84 5.49882e-14 0)
(851.84 7.45016e-15 0)
(851.84 9.50352e-15 0)
(851.84 -2.03021e-13 0)
(851.84 -3.71165e-13 0)
(851.84 -5.46404e-13 0)
(851.84 -3.3598e-13 0)
(851.84 -1.15127e-13 0)
(851.84 -1.89505e-15 0)
(851.84 4.02693e-14 0)
(851.84 -2.81831e-14 0)
(851.84 -6.5977e-14 0)
(851.84 -3.00015e-13 0)
(851.84 -2.14857e-14 0)
(851.84 -2.72851e-14 0)
(851.84 -2.7688e-16 0)
(851.84 -2.46531e-13 0)
(851.84 -4.82003e-13 0)
(851.84 -6.40853e-13 0)
(851.84 -6.0475e-13 0)
(851.84 -5.97162e-13 0)
(851.84 -5.68351e-13 0)
(851.84 -3.65502e-13 0)
(851.84 2.23213e-14 0)
(851.84 4.03712e-14 0)
(851.84 2.78595e-13 0)
(851.84 3.36297e-13 0)
(851.84 1.30002e-13 0)
(851.84 2.61694e-13 0)
(851.84 1.98389e-13 0)
(851.84 2.42197e-13 0)
(851.84 2.21127e-14 0)
(851.84 -6.1171e-15 0)
(851.84 2.79136e-13 0)
(851.84 2.66947e-13 0)
(851.84 1.86356e-13 0)
(851.84 1.04572e-13 0)
(851.84 -1.89395e-13 0)
(851.84 -2.02701e-13 0)
(851.84 -5.15534e-14 0)
(851.84 -1.35792e-13 0)
(851.84 -4.5469e-14 0)
(851.84 -8.56774e-14 0)
(851.84 2.54109e-15 0)
(851.84 1.6969e-13 0)
(851.84 8.01238e-14 0)
(851.84 -3.88478e-14 0)
(851.84 -2.09114e-14 0)
(851.84 -2.25712e-13 0)
(851.84 -1.89199e-13 0)
(851.84 -5.01414e-14 0)
(851.84 -4.35159e-14 0)
(851.84 5.46392e-14 0)
(851.84 1.20223e-13 0)
(851.84 3.92066e-14 0)
(851.84 -6.4133e-14 0)
(851.84 -2.13999e-13 0)
(851.84 -3.71859e-13 0)
(851.84 -4.09302e-13 0)
(851.84 -3.98778e-13 0)
(851.84 -3.14704e-13 0)
(851.84 -2.22095e-13 0)
(851.84 3.38834e-14 0)
(851.84 4.6709e-14 0)
(851.84 2.75659e-13 0)
(851.84 1.16338e-13 0)
(851.84 1.66758e-13 0)
(851.84 2.27939e-13 0)
(851.84 2.85661e-13 0)
(851.84 -1.44463e-13 0)
(851.84 -1.19115e-13 0)
(851.84 -9.55214e-14 0)
(851.84 6.38187e-14 0)
(851.84 2.96502e-13 0)
(851.84 2.8386e-13 0)
(851.84 5.81254e-14 0)
(851.84 2.15663e-15 0)
(851.84 -2.25404e-13 0)
(851.84 -2.76685e-13 0)
(851.84 -4.06379e-13 0)
(851.84 -1.94894e-13 0)
(851.84 8.06587e-14 0)
(851.84 2.37065e-13 0)
(851.84 1.55441e-13 0)
(851.84 -8.477e-14 0)
(851.84 -2.67866e-13 0)
(851.84 -4.99571e-13 0)
(851.84 -4.47426e-13 0)
(851.84 -2.85592e-13 0)
(851.84 -2.64852e-13 0)
(851.84 -1.78565e-13 0)
(851.84 -6.22741e-14 0)
(851.84 3.17945e-14 0)
(851.84 4.69553e-14 0)
(851.84 3.49189e-14 0)
(851.84 -1.24474e-13 0)
(851.84 -1.05786e-13 0)
(851.84 -2.00683e-13 0)
(851.84 -1.4074e-13 0)
(851.84 -4.02146e-14 0)
(851.84 2.65776e-13 0)
(851.84 3.15969e-13 0)
(851.84 5.20312e-13 0)
(851.84 9.08582e-14 0)
(851.84 7.52521e-14 0)
(851.84 3.17866e-13 0)
(851.84 4.57445e-13 0)
(851.84 3.03648e-14 0)
(851.84 -1.15647e-13 0)
(851.84 -3.82249e-14 0)
(851.84 8.44356e-14 0)
(851.84 2.21567e-13 0)
(851.84 1.59802e-13 0)
(851.84 2.16063e-13 0)
(851.84 6.95197e-15 0)
(851.84 -2.88288e-13 0)
(851.84 -4.4095e-13 0)
(851.84 -4.4743e-13 0)
(851.84 -4.04321e-13 0)
(851.84 -5.42128e-14 0)
(851.84 1.60209e-13 0)
(851.84 1.75544e-13 0)
(851.84 2.80748e-13 0)
(851.84 3.67075e-13 0)
(851.84 6.84197e-13 0)
(851.84 3.73774e-13 0)
(851.84 4.45851e-14 0)
(851.84 1.04574e-13 0)
(851.84 5.61339e-14 0)
(851.84 9.15805e-14 0)
(851.84 -2.78242e-13 0)
(851.84 -2.96172e-13 0)
(851.84 -3.17658e-13 0)
(851.84 -1.96535e-13 0)
(851.84 -3.92072e-13 0)
(851.84 6.81978e-14 0)
(851.84 1.06547e-13 0)
(851.84 1.322e-14 0)
(851.84 1.87991e-13 0)
(851.84 6.07275e-14 0)
(851.84 1.86053e-14 0)
(851.84 -1.12375e-14 0)
(851.84 5.09159e-13 0)
(851.84 3.44918e-13 0)
(851.84 4.00288e-13 0)
(851.84 9.74246e-14 0)
(851.84 6.04349e-14 0)
(851.84 1.09682e-13 0)
(851.84 1.32507e-13 0)
(851.84 6.24716e-14 0)
(851.84 1.69172e-14 0)
(851.84 4.11874e-15 0)
(851.84 -1.36901e-13 0)
(851.84 -1.40109e-13 0)
(851.84 -1.63668e-13 0)
(851.84 -1.68472e-13 0)
(851.84 -2.12665e-13 0)
(851.84 -2.93963e-13 0)
(851.84 -2.02948e-13 0)
(851.84 -9.26014e-14 0)
(851.84 1.90743e-13 0)
(851.84 1.81667e-13 0)
(851.84 2.08783e-13 0)
(851.84 3.49295e-13 0)
(851.84 6.28511e-13 0)
(851.84 2.68113e-13 0)
(851.84 4.3273e-13 0)
(851.84 4.52727e-13 0)
(851.84 -6.04634e-14 0)
(851.84 -3.89673e-13 0)
(851.84 -5.74545e-13 0)
(851.84 -4.47692e-13 0)
(851.84 -3.14413e-13 0)
(851.84 1.41619e-15 0)
(851.84 3.19832e-14 0)
(851.84 1.46654e-13 0)
(851.84 1.63363e-13 0)
(851.84 2.34688e-13 0)
(851.84 2.51199e-13 0)
(851.84 4.20483e-13 0)
(851.84 4.53928e-13 0)
(851.84 3.03086e-13 0)
(851.84 1.61582e-13 0)
(851.84 -5.94936e-14 0)
(851.84 -1.56559e-13 0)
(851.84 -9.98124e-14 0)
(851.84 -9.88545e-14 0)
(851.84 -1.34437e-14 0)
(851.84 -2.0372e-13 0)
(851.84 -3.37599e-13 0)
(851.84 -1.25475e-13 0)
(851.84 -3.70922e-13 0)
(851.84 -4.19851e-13 0)
(851.84 -1.95886e-13 0)
(851.84 -1.22836e-13 0)
(851.84 -6.92531e-14 0)
(851.84 -2.07458e-13 0)
(851.84 4.94439e-14 0)
(851.84 6.93356e-14 0)
(851.84 1.58926e-13 0)
(851.84 2.14106e-13 0)
(851.84 4.73572e-13 0)
(851.84 7.30929e-14 0)
(851.84 -4.63188e-14 0)
(851.84 2.54352e-13 0)
(851.84 -3.97972e-14 0)
(851.84 -2.2019e-13 0)
(851.84 -1.89682e-13 0)
(851.84 -7.72412e-14 0)
(851.84 2.69169e-14 0)
(851.84 2.68125e-14 0)
(851.84 1.1087e-13 0)
(851.84 2.88471e-13 0)
(851.84 9.08796e-14 0)
(851.84 -3.89873e-14 0)
(851.84 2.50801e-13 0)
(851.84 4.2347e-13 0)
(851.84 2.73921e-13 0)
(851.84 3.67439e-13 0)
(851.84 2.90495e-13 0)
(851.84 9.6877e-14 0)
(851.84 6.51368e-15 0)
(851.84 1.4375e-13 0)
(851.84 -4.10556e-14 0)
(851.84 -2.33338e-13 0)
(851.84 -3.08962e-13 0)
(851.84 -2.00954e-13 0)
(851.84 -2.70847e-13 0)
(851.84 -6.33068e-14 0)
(851.84 -1.1398e-14 0)
(851.84 4.59491e-13 0)
(851.84 4.19311e-13 0)
(851.84 3.40667e-13 0)
(851.84 2.20533e-13 0)
(851.84 3.17101e-13 0)
(851.84 2.52532e-13 0)
(851.84 1.54114e-13 0)
(851.84 3.45784e-13 0)
(851.84 3.58705e-13 0)
(851.84 1.95139e-13 0)
(851.84 -1.54597e-13 0)
(851.84 -1.99272e-13 0)
(851.84 -3.3976e-13 0)
(851.84 -7.65324e-13 0)
(851.84 -9.1102e-13 0)
(851.84 -5.88703e-13 0)
(851.84 -2.81326e-13 0)
(851.84 -1.36628e-13 0)
(851.84 1.35966e-13 0)
(851.84 1.61261e-13 0)
(851.84 2.52803e-13 0)
(851.84 3.97239e-14 0)
(851.84 -7.59722e-14 0)
(851.84 -1.47107e-13 0)
(851.84 -2.5946e-13 0)
(851.84 -1.31689e-13 0)
(851.84 -2.06232e-13 0)
(851.84 -2.16565e-13 0)
(851.84 -2.45925e-13 0)
(851.84 -3.57165e-14 0)
(851.84 -4.78028e-14 0)
(851.84 -2.83704e-14 0)
(851.84 -1.26422e-13 0)
(851.84 -2.55757e-13 0)
(851.84 -6.84536e-14 0)
(851.84 -4.01754e-14 0)
(851.84 -1.11447e-13 0)
(851.84 3.13407e-13 0)
(851.84 3.82976e-13 0)
(851.84 1.08576e-13 0)
(851.84 1.14407e-13 0)
(851.84 1.70072e-13 0)
(851.84 1.16926e-13 0)
(851.84 4.8571e-14 0)
(851.84 3.59308e-13 0)
(851.84 2.98303e-13 0)
(851.84 2.23434e-13 0)
(851.84 -2.01716e-14 0)
(851.84 -1.69517e-13 0)
(851.84 -1.6268e-13 0)
(851.84 -6.14071e-13 0)
(851.84 -5.35747e-13 0)
(851.84 -3.96437e-13 0)
(851.84 -2.01036e-13 0)
(851.84 -3.07946e-13 0)
(851.84 -3.0092e-13 0)
(851.84 -1.28384e-13 0)
(851.84 2.8698e-13 0)
(851.84 4.0405e-13 0)
(851.84 1.40726e-15 0)
(851.84 6.54616e-13 0)
(851.84 3.34503e-13 0)
(851.84 -4.48668e-14 0)
(851.84 -1.61506e-13 0)
(851.84 -1.83281e-13 0)
(851.84 -1.20622e-13 0)
(851.84 -1.74428e-13 0)
(851.84 -3.09744e-14 0)
(851.84 -6.57344e-14 0)
(851.84 -1.178e-13 0)
(851.84 -1.34706e-13 0)
(851.84 1.07081e-13 0)
(851.84 2.34368e-13 0)
(851.84 2.74326e-13 0)
(851.84 1.47408e-13 0)
(851.84 4.25778e-13 0)
(851.84 1.06057e-13 0)
(851.84 6.6899e-14 0)
(851.84 9.47983e-14 0)
(851.84 1.79228e-13 0)
(851.84 1.27412e-13 0)
(851.84 2.23344e-13 0)
(851.84 3.43171e-13 0)
(851.84 4.10509e-13 0)
(851.84 3.85078e-14 0)
(851.84 -1.87317e-13 0)
(851.84 1.60982e-13 0)
(851.84 5.65194e-13 0)
(851.84 8.28225e-13 0)
(851.84 9.08374e-13 0)
(851.84 8.28929e-13 0)
(851.84 4.57786e-13 0)
(851.84 1.26297e-13 0)
(851.84 8.97399e-14 0)
(851.84 1.21964e-13 0)
(851.84 -4.27061e-14 0)
(851.84 -1.03412e-13 0)
(851.84 7.41174e-14 0)
(851.84 -3.82851e-14 0)
(851.84 -1.57755e-13 0)
(851.84 -9.043e-14 0)
(851.84 -1.57403e-13 0)
(851.84 -3.32064e-13 0)
(851.84 -2.45318e-13 0)
(851.84 -3.59177e-13 0)
(851.84 5.07231e-14 0)
(851.84 -3.51855e-14 0)
(851.84 -1.98593e-13 0)
(851.84 -9.97209e-14 0)
(851.84 -9.4459e-14 0)
(851.84 -2.80841e-14 0)
(851.84 -4.43592e-14 0)
(851.84 -1.88028e-13 0)
(851.84 -1.13488e-13 0)
(851.84 -1.04023e-13 0)
(851.84 -6.72336e-14 0)
(851.84 4.08986e-14 0)
(851.84 1.54896e-13 0)
(851.84 -3.26969e-14 0)
(851.84 3.9714e-14 0)
(851.84 -1.67407e-14 0)
(851.84 7.09241e-14 0)
(851.84 4.44399e-13 0)
(851.84 3.46782e-13 0)
(851.84 5.02534e-13 0)
(851.84 3.95098e-13 0)
(851.84 2.33874e-13 0)
(851.84 -1.44962e-13 0)
(851.84 4.97939e-13 0)
(851.84 7.19755e-14 0)
(851.84 1.83597e-13 0)
(851.84 2.86403e-13 0)
(851.84 6.48523e-14 0)
(851.84 -8.96232e-15 0)
(851.84 1.70538e-13 0)
(851.84 6.74024e-14 0)
(851.84 -2.06241e-13 0)
(851.84 -4.03961e-13 0)
(851.84 -1.33273e-13 0)
(851.84 -1.11364e-13 0)
(851.84 -3.84097e-14 0)
(851.84 -5.56264e-14 0)
(851.84 -2.99526e-13 0)
(851.84 1.18033e-13 0)
(851.84 1.30553e-13 0)
(851.84 -5.54714e-14 0)
(851.84 -2.11996e-14 0)
(851.84 6.73837e-14 0)
(851.84 -2.26042e-13 0)
(851.84 1.55557e-13 0)
(851.84 -5.43179e-14 0)
(851.84 -3.25221e-13 0)
(851.84 -1.53525e-13 0)
(851.84 -1.6e-13 0)
(851.84 -2.62807e-13 0)
(851.84 -1.93652e-13 0)
(851.84 1.33282e-13 0)
(851.84 2.4364e-13 0)
(851.84 -1.50244e-14 0)
(851.84 -1.0574e-13 0)
(851.84 -2.3212e-13 0)
(851.84 3.35325e-15 0)
(851.84 4.87403e-13 0)
(851.84 2.18973e-13 0)
(851.84 3.11564e-13 0)
(851.84 1.15711e-13 0)
(851.84 2.4191e-13 0)
(851.84 1.26885e-13 0)
(851.84 6.05352e-14 0)
(851.84 -7.60982e-14 0)
(851.84 1.13084e-13 0)
(851.84 -3.09791e-13 0)
(851.84 -1.05447e-13 0)
(851.84 6.48334e-14 0)
(851.84 -4.2474e-14 0)
(851.84 -2.39438e-13 0)
(851.84 -1.89068e-13 0)
(851.84 -9.63851e-14 0)
(851.84 1.04223e-13 0)
(851.84 1.98055e-13 0)
(851.84 2.86242e-13 0)
(851.84 4.87683e-14 0)
(851.84 2.3318e-13 0)
(851.84 2.7762e-13 0)
(851.84 1.92856e-13 0)
(851.84 1.49463e-13 0)
(851.84 7.13489e-14 0)
(851.84 -6.80435e-14 0)
(851.84 2.63478e-14 0)
(851.84 2.94405e-14 0)
(851.84 -1.54009e-13 0)
(851.84 3.00859e-14 0)
(851.84 2.21147e-13 0)
(851.84 -1.90816e-13 0)
(851.84 -2.51501e-13 0)
(851.84 -2.34232e-13 0)
(851.84 -1.74878e-13 0)
(851.84 -4.09549e-13 0)
(851.84 -3.37055e-13 0)
(851.84 -1.70797e-13 0)
(851.84 -9.94177e-14 0)
(851.84 1.64245e-13 0)
(851.84 1.70469e-13 0)
(851.84 2.90255e-13 0)
(851.84 1.074e-13 0)
(851.84 -2.17206e-13 0)
(851.84 1.25075e-14 0)
(851.84 -3.23732e-14 0)
(851.84 9.31757e-14 0)
(851.84 -2.21261e-13 0)
(851.84 -3.2171e-13 0)
(851.84 -2.33389e-13 0)
(851.84 5.32114e-14 0)
(851.84 3.08686e-13 0)
(851.84 1.53381e-13 0)
(851.84 3.91801e-14 0)
(851.84 9.51431e-14 0)
(851.84 8.06688e-14 0)
(851.84 2.43758e-13 0)
(851.84 -9.0375e-14 0)
(851.84 1.59003e-14 0)
(851.84 -7.86316e-15 0)
(851.84 -6.43421e-14 0)
(851.84 -1.64766e-13 0)
(851.84 -6.13608e-14 0)
(851.84 -1.61472e-13 0)
(851.84 4.5559e-14 0)
(851.84 4.80401e-14 0)
(851.84 1.21825e-14 0)
(851.84 -8.18535e-15 0)
(851.84 2.16269e-13 0)
(851.84 1.07691e-14 0)
(851.84 1.44659e-13 0)
(851.84 -3.30001e-13 0)
(851.84 -2.96609e-13 0)
(851.84 -6.27522e-13 0)
(851.84 -4.54916e-13 0)
(851.84 -2.62278e-13 0)
(851.84 -4.48851e-13 0)
(851.84 -2.85121e-13 0)
(851.84 -1.61511e-13 0)
(851.84 -5.94541e-14 0)
(851.84 2.47998e-14 0)
(851.84 4.59113e-13 0)
(851.84 4.38279e-13 0)
(851.84 4.20673e-13 0)
(851.84 2.33905e-13 0)
(851.84 5.11013e-13 0)
(851.84 4.83278e-13 0)
(851.84 4.75041e-13 0)
(851.84 3.12191e-13 0)
(851.84 1.60513e-13 0)
(851.84 3.03793e-13 0)
(851.84 2.47033e-13 0)
(851.84 5.30255e-14 0)
(851.84 -7.77567e-14 0)
(851.84 8.50765e-14 0)
(851.84 -1.10894e-13 0)
(851.84 -1.27839e-13 0)
(851.84 -7.66497e-14 0)
(851.84 -1.12219e-13 0)
(851.84 -3.82838e-13 0)
(851.84 -2.86012e-13 0)
(851.84 2.69237e-15 0)
(851.84 1.15964e-13 0)
(851.84 2.33895e-13 0)
(851.84 3.28045e-13 0)
(851.84 3.0193e-13 0)
(851.84 3.16154e-13 0)
(851.84 5.45466e-13 0)
(851.84 4.08307e-13 0)
(851.84 3.10388e-14 0)
(851.84 -2.27065e-13 0)
(851.84 -2.7493e-13 0)
(851.84 -1.08726e-13 0)
(851.84 5.40406e-14 0)
(851.84 1.9393e-13 0)
(851.84 -2.98731e-13 0)
(851.84 7.24126e-15 0)
(851.84 3.73444e-14 0)
(851.84 2.07634e-13 0)
(851.84 7.67694e-14 0)
(851.84 1.06997e-13 0)
(851.84 1.56014e-13 0)
(851.84 4.0306e-14 0)
(851.84 -4.73728e-14 0)
(851.84 5.01461e-14 0)
(851.84 1.21e-13 0)
(851.84 -9.98158e-14 0)
(851.84 9.75321e-14 0)
(851.84 3.40798e-13 0)
(851.84 5.83049e-13 0)
(851.84 2.35815e-13 0)
(851.84 4.82684e-14 0)
(851.84 1.82919e-13 0)
(851.84 -2.9046e-14 0)
(851.84 4.52921e-14 0)
(851.84 -1.03969e-13 0)
(851.84 -8.05155e-14 0)
(851.84 2.38565e-13 0)
(851.84 1.76476e-13 0)
(851.84 2.81864e-13 0)
(851.84 2.41269e-13 0)
(851.84 3.10184e-13 0)
(851.84 2.8877e-13 0)
(851.84 2.80724e-13 0)
(851.84 2.41634e-13 0)
(851.84 4.07598e-13 0)
(851.84 1.38521e-13 0)
(851.84 -9.65762e-14 0)
(851.84 -2.17768e-13 0)
(851.84 1.10163e-13 0)
(851.84 1.54465e-13 0)
(851.84 3.46489e-13 0)
(851.84 5.20262e-13 0)
(851.84 3.14592e-13 0)
(851.84 2.81437e-13 0)
(851.84 1.59993e-13 0)
(851.84 1.22525e-13 0)
(851.84 5.43649e-14 0)
(851.84 9.33156e-14 0)
(851.84 2.09371e-14 0)
(851.84 1.45411e-13 0)
(851.84 2.46521e-13 0)
(851.84 5.9922e-14 0)
(851.84 -1.67715e-13 0)
(851.84 -3.23105e-13 0)
(851.84 -4.56532e-13 0)
(851.84 6.07801e-14 0)
(851.84 -2.8214e-14 0)
(851.84 1.22015e-13 0)
(851.84 2.48634e-13 0)
(851.84 9.56664e-14 0)
(851.84 1.24271e-13 0)
(851.84 4.29035e-14 0)
(851.84 2.52669e-13 0)
(851.84 4.11558e-13 0)
(851.84 5.51808e-13 0)
(851.84 5.76434e-13 0)
(851.84 3.33056e-13 0)
(851.84 2.96699e-13 0)
(851.84 -1.82639e-14 0)
(851.84 1.2513e-13 0)
(851.84 3.05782e-13 0)
(851.84 4.12654e-13 0)
(851.84 1.73266e-13 0)
(851.84 6.86297e-14 0)
(851.84 -5.88576e-14 0)
(851.84 6.6695e-14 0)
(851.84 1.37402e-13 0)
(851.84 7.36226e-14 0)
(851.84 3.52787e-14 0)
(851.84 -3.05486e-13 0)
(851.84 -2.31973e-13 0)
(851.84 -2.33508e-13 0)
(851.84 -3.14497e-13 0)
(851.84 -5.12712e-13 0)
(851.84 -4.47198e-13 0)
(851.84 9.05779e-14 0)
(851.84 2.60303e-13 0)
(851.84 2.36057e-13 0)
(851.84 -6.97425e-14 0)
(851.84 -3.41263e-13 0)
(851.84 -5.2228e-13 0)
(851.84 -5.29121e-13 0)
(851.84 -6.94445e-13 0)
(851.84 -4.72209e-13 0)
(851.84 -4.47303e-13 0)
(851.84 -1.62999e-13 0)
(851.84 -3.02613e-14 0)
(851.84 -1.54092e-13 0)
(851.84 -2.69115e-14 0)
(851.84 -3.86035e-14 0)
(851.84 5.96929e-14 0)
(851.84 2.50591e-13 0)
(851.84 -1.52432e-14 0)
(851.84 -4.36939e-14 0)
(851.84 -1.24909e-13 0)
(851.84 -6.67164e-14 0)
(851.84 1.16522e-13 0)
(851.84 1.55748e-13 0)
(851.84 -1.16002e-14 0)
(851.84 -3.06423e-14 0)
(851.84 -2.73151e-13 0)
(851.84 -1.34119e-13 0)
(851.84 9.99973e-14 0)
(851.84 2.7408e-13 0)
(851.84 5.14381e-13 0)
(851.84 5.9523e-13 0)
(851.84 2.6026e-13 0)
(851.84 -1.30145e-13 0)
(851.84 -4.8302e-14 0)
(851.84 -1.30528e-13 0)
(851.84 -2.92792e-13 0)
(851.84 -1.09566e-13 0)
(851.84 -2.8409e-13 0)
(851.84 -6.96295e-14 0)
(851.84 2.07217e-13 0)
(851.84 2.22814e-13 0)
(851.84 -1.17585e-13 0)
(851.84 -2.76079e-13 0)
(851.84 -1.50314e-13 0)
(851.84 6.24679e-14 0)
(851.84 -3.04988e-13 0)
(851.84 -5.2287e-13 0)
(851.84 -2.66875e-13 0)
(851.84 -1.38251e-13 0)
(851.84 1.40388e-14 0)
(851.84 4.74457e-15 0)
(851.84 -3.91562e-14 0)
(851.84 -1.45209e-13 0)
(851.84 -1.57632e-14 0)
(851.84 5.43779e-14 0)
(851.84 3.86575e-13 0)
(851.84 7.92336e-15 0)
(851.84 -9.58591e-15 0)
(851.84 -8.47123e-14 0)
(851.84 2.0973e-14 0)
(851.84 9.88719e-15 0)
(851.84 8.7252e-14 0)
(851.84 -1.80352e-13 0)
(851.84 -2.5138e-13 0)
(851.84 -2.51166e-13 0)
(851.84 -1.45702e-13 0)
(851.84 1.46307e-13 0)
(851.84 3.20692e-13 0)
(851.84 5.7396e-14 0)
(851.84 2.32164e-13 0)
(851.84 4.40442e-13 0)
(851.84 4.03796e-13 0)
(851.84 5.03684e-13 0)
(851.84 5.71974e-13 0)
(851.84 7.25499e-13 0)
(851.84 1.10731e-12 0)
(851.84 8.30673e-13 0)
(851.84 5.67676e-13 0)
(851.84 6.14214e-13 0)
(851.84 4.70264e-13 0)
(851.84 2.40411e-13 0)
(851.84 1.50122e-13 0)
(851.84 2.69765e-13 0)
(851.84 2.29179e-13 0)
(851.84 1.66164e-14 0)
(851.84 -1.44291e-13 0)
(851.84 -3.59866e-14 0)
(851.84 -2.00906e-14 0)
(851.84 1.60813e-14 0)
(851.84 9.99311e-14 0)
(851.84 5.63976e-14 0)
(851.84 5.46838e-14 0)
(851.84 5.43199e-14 0)
(851.84 4.53852e-15 0)
(851.84 9.52624e-14 0)
(851.84 -2.86759e-14 0)
(851.84 1.98189e-13 0)
(851.84 4.19154e-13 0)
(851.84 2.39597e-13 0)
(851.84 1.99045e-13 0)
(851.84 -1.71859e-13 0)
(851.84 1.70927e-14 0)
(851.84 -1.97131e-13 0)
(851.84 -2.79746e-14 0)
(851.84 1.24681e-13 0)
(851.84 -1.6952e-13 0)
(851.84 -1.23506e-13 0)
(851.84 2.14021e-13 0)
(851.84 2.97626e-13 0)
(851.84 3.47681e-13 0)
(851.84 3.90611e-13 0)
(851.84 6.52998e-13 0)
(851.84 7.76564e-13 0)
(851.84 8.19971e-13 0)
(851.84 7.15309e-13 0)
(851.84 6.38448e-13 0)
(851.84 3.21454e-13 0)
(851.84 5.69362e-13 0)
(851.84 5.38217e-13 0)
(851.84 4.2493e-13 0)
(851.84 3.09903e-13 0)
(851.84 4.97734e-13 0)
(851.84 4.26439e-13 0)
(851.84 1.3348e-13 0)
(851.84 -5.31292e-14 0)
(851.84 1.7474e-13 0)
(851.84 7.91708e-14 0)
(851.84 1.09997e-13 0)
(851.84 -1.33053e-13 0)
(851.84 -2.32471e-13 0)
(851.84 -1.39397e-13 0)
(851.84 -2.62996e-13 0)
(851.84 -6.20387e-14 0)
(851.84 2.60518e-13 0)
(851.84 4.8863e-13 0)
(851.84 1.1905e-13 0)
(851.84 2.41842e-13 0)
(851.84 2.093e-13 0)
(851.84 3.15178e-13 0)
(851.84 2.18369e-13 0)
(851.84 4.70865e-13 0)
(851.84 4.33562e-13 0)
(851.84 1.21004e-13 0)
(851.84 -1.86395e-13 0)
(851.84 -5.47653e-14 0)
(851.84 -1.24568e-14 0)
(851.84 -8.76539e-14 0)
(851.84 1.98269e-13 0)
(851.84 4.33175e-13 0)
(851.84 5.82772e-13 0)
(851.84 5.07441e-13 0)
(851.84 6.96099e-13 0)
(851.84 5.93009e-13 0)
(851.84 5.83095e-13 0)
(851.84 6.56596e-13 0)
(851.84 7.74358e-13 0)