/*--------------------------------*- C++ -*----------------------------------*\
| =========                 |                                                 |
| \\      /  F ield         | OpenFOAM: The Open Source CFD Toolbox           |
|  \\    /   O peration     | Version:  v1812                                 |
|   \\  /    A nd           | Web:      www.OpenFOAM.com                      |
|    \\/     M anipulation  |                                                 |
\*---------------------------------------------------------------------------*/
FoamFile
{
    version     2.0;
    format      ascii;
    class       volScalarField;
    location    "0.035";
    object      p;
}
// * * * * * * * * * * * * * * * * * * * * * * * * * * * * * * * * * * * * * //

dimensions      [1 -1 -2 0 0 0 0];


internalField   nonuniform List<scalar> 
800
(
460.894
460.894
460.894
460.894
460.894
460.894
460.894
460.894
460.894
460.894
460.894
460.894
460.894
460.894
460.894
460.894
460.894
460.894
460.894
460.894
460.894
460.894
460.894
460.894
460.894
460.894
460.894
460.894
460.894
460.894
460.894
460.894
460.894
460.894
460.894
460.894
460.894
460.894
460.894
460.894
460.894
460.894
460.894
460.894
460.894
460.894
460.894
460.894
460.894
460.894
460.894
460.894
460.894
460.894
460.894
460.894
460.894
460.894
460.894
460.894
460.894
460.894
460.894
460.894
460.894
460.894
460.894
460.894
460.894
460.894
460.894
460.894
460.894
460.894
460.894
460.894
460.894
460.894
460.894
460.894
460.894
460.894
460.894
460.894
460.894
460.894
460.894
460.894
460.894
460.894
460.894
460.894
460.894
460.894
460.894
460.894
460.894
460.894
460.894
460.894
460.894
460.894
460.894
460.894
460.894
460.894
460.894
460.894
460.894
460.894
460.894
460.894
460.894
460.894
460.894
460.894
460.894
460.894
460.894
460.894
460.894
460.894
460.894
460.894
460.894
460.894
460.894
460.894
460.894
460.894
460.894
460.894
460.894
460.894
460.894
460.894
460.894
460.894
460.894
460.894
460.894
460.894
460.894
460.894
460.894
460.894
460.894
460.894
460.894
460.894
460.894
460.894
460.894
460.894
460.894
460.894
460.894
460.894
460.894
460.894
460.894
460.894
460.894
460.894
460.894
460.894
460.894
460.894
460.894
460.894
460.894
460.894
460.894
460.894
460.894
460.894
460.894
460.894
460.894
460.894
460.894
460.894
460.894
460.894
460.894
460.894
460.894
460.894
460.894
460.894
460.894
460.894
460.894
460.894
460.894
460.894
460.894
460.894
460.894
460.894
460.894
460.894
460.894
460.894
460.894
460.894
460.894
460.894
460.894
460.894
460.894
460.894
460.894
460.894
460.894
460.894
460.894
460.894
460.894
460.894
460.894
460.894
460.894
460.894
460.894
460.894
460.894
460.894
460.894
460.894
460.894
460.894
460.894
460.894
460.894
460.894
460.894
460.894
460.894
460.894
460.894
460.894
460.894
460.894
460.894
460.894
460.894
460.894
460.894
460.894
460.894
460.894
460.894
460.894
460.894
460.894
460.894
460.894
460.894
460.894
460.894
460.894
460.894
460.894
460.894
460.894
460.894
460.894
460.894
460.894
460.894
460.894
460.894
460.894
460.894
460.894
460.894
460.894
460.894
460.894
460.894
460.894
460.894
460.894
460.894
460.894
460.894
460.894
460.894
460.894
460.894
460.894
460.894
460.894
460.894
460.894
460.894
460.894
460.894
460.894
460.894
460.894
460.894
460.894
460.894
460.894
460.894
460.894
460.894
460.894
460.894
460.894
460.894
460.894
460.894
460.894
460.894
460.894
460.894
460.894
460.894
460.894
460.894
460.894
460.894
460.894
460.894
460.894
460.894
460.894
460.894
460.894
460.894
460.894
460.894
460.894
460.894
460.894
460.894
460.894
460.894
460.894
460.894
460.894
460.894
460.894
460.894
460.894
460.894
460.894
460.894
460.894
460.894
460.894
460.894
460.894
460.894
460.894
460.894
460.894
460.894
460.894
460.894
460.894
460.894
460.894
460.894
460.894
460.894
460.894
460.894
460.894
460.894
460.894
460.894
460.894
460.894
460.894
460.894
460.894
460.894
460.894
460.894
460.894
460.894
460.894
460.894
460.894
460.894
460.894
460.894
460.894
460.894
460.894
460.894
460.894
460.894
460.894
460.894
460.894
460.894
460.894
460.894
460.894
460.894
460.894
460.894
460.894
460.894
460.894
460.894
460.894
460.894
460.894
460.894
460.894
460.894
460.894
460.895
460.908
461.267
470.628
707.28
1538.35
1684.63
1690.61
1688.93
1689.88
1691.01
1691.41
1691.88
1691.95
1691.66
1690.76
1689.4
1687.67
1686.05
1685.11
1685.14
1685.62
1686.75
1688.45
1690.3
1691.83
1692.66
1692.89
1692.82
1692.5
1692.06
1691.58
1691.21
1691.02
1691
1691.03
1691.04
1691.02
1690.91
1690.65
1690.2
1689.57
1688.84
1688.15
1687.73
1687.64
1687.71
1687.97
1688.46
1689.15
1689.92
1690.65
1691.2
1691.52
1691.63
1691.63
1691.59
1691.5
1691.39
1691.26
1691.14
1691.01
1690.85
1690.65
1690.38
1690.05
1689.65
1689.23
1688.84
1688.55
1688.43
1688.44
1688.51
1688.69
1688.98
1689.36
1689.79
1690.21
1690.59
1690.89
1691.11
1691.23
1691.28
1691.29
1691.27
1691.22
1691.13
1691
1690.82
1690.59
1690.32
1690.02
1689.71
1689.42
1689.18
1689.04
1688.99
1689.01
1689.07
1689.18
1689.36
1689.59
1689.86
1690.14
1690.4
1690.64
1690.83
1690.97
1691.05
1691.07
1691.06
1691.02
1690.94
1690.82
1690.66
1690.46
1690.23
1689.99
1689.76
1689.54
1689.37
1689.27
1689.23
1689.24
1689.27
1689.34
1689.46
1689.61
1689.79
1689.99
1690.19
1690.38
1690.55
1690.68
1690.77
1690.81
1690.8
1690.78
1690.74
1690.65
1690.53
1690.38
1690.21
1690.03
1689.86
1689.7
1689.57
1689.49
1689.46
1689.46
1689.48
1689.54
1689.62
1689.74
1689.88
1690.04
1690.21
1690.37
1690.52
1690.64
1690.72
1690.76
1690.75
1690.73
1690.69
1690.62
1690.52
1690.4
1690.25
1690.1
1689.95
1689.81
1689.7
1689.62
1689.58
1689.58
1689.59
1689.62
1689.69
1689.78
1689.9
1690.03
1690.17
1690.31
1690.43
1690.53
1690.6
1690.63
1690.63
1690.61
1690.57
1690.51
1690.43
1690.33
1690.21
1690.08
1689.96
1689.84
1689.75
1689.68
1689.65
1689.66
1689.68
1689.72
1689.79
1689.88
1689.98
1690.1
1690.22
1690.33
1690.43
1690.52
1690.57
1690.59
1690.59
1690.56
1690.52
1690.46
1690.37
1690.28
1690.17
1690.05
1689.94
1689.84
1689.77
1689.73
1689.74
1689.79
1689.84
1689.95
1690.1
1690.24
1690.37
1690.47
1690.52
1690.52
1690.48
1690.41
1690.29
1690.13
1690.04
1689.92
1689.85
1689.84
1689.86
1689.91
1690.01
1690.05
1690.14
1690.25
1690.34
1690.4
1690.4
1690.39
1690.36
1690.31
1690.24
1690.15
1690.06
1690
1690.01
1690.07
1690.05
1690.03
1690.06
1690.12
1690.19
1690.26
1690.28
1690.29
1690.3
1690.29
1690.26
1690.21
1690.17
1690.12
1690.1
1690.09
1690.06
1690.04
1690.05
1690.08
1690.11
1690.15
1690.18
1690.2
1690.24
1690.26
1690.24
1690.21
1690.21
1690.21
1690.19
1690.18
1690.16
1690.13
1690.12
1690.13
1690.15
1690.16
1690.17
1690.19
1690.23
1690.22
1690.22
1690.22
1690.22
1690.22
1690.22
1690.22
1690.2
1690.19
1690.17
1690.17
1690.17
1690.17
1690.16
1690.11
1689.8
1688.1
1679.4
1635.3
1429.73
844.886
142.116
46.3074
46.0954
46.095
46.095
46.095
46.095
46.095
46.095
46.095
46.095
46.095
46.095
46.095
46.095
46.095
46.095
46.095
46.095
46.095
46.095
46.095
46.095
46.095
46.095
46.095
46.095
46.095
46.095
46.095
46.095
46.095
46.095
46.095
46.095
46.095
46.095
46.095
46.095
46.095
46.095
46.095
46.095
46.095
46.095
46.095
46.095
46.095
46.095
46.095
46.095
46.095
46.095
46.095
46.095
46.095
46.095
46.095
)
;

boundaryField
{
    sides
    {
        type            zeroGradient;
    }
    empty1
    {
        type            empty;
    }
    empty2
    {
        type            empty;
    }
}


// ************************************************************************* //
