/*--------------------------------*- C++ -*----------------------------------*\
| =========                 |                                                 |
| \\      /  F ield         | OpenFOAM: The Open Source CFD Toolbox           |
|  \\    /   O peration     | Version:  v1812                                 |
|   \\  /    A nd           | Web:      www.OpenFOAM.com                      |
|    \\/     M anipulation  |                                                 |
\*---------------------------------------------------------------------------*/
FoamFile
{
    version     2.0;
    format      ascii;
    class       surfaceScalarField;
    location    "0.035";
    object      phi;
}
// * * * * * * * * * * * * * * * * * * * * * * * * * * * * * * * * * * * * * //

dimensions      [1 0 -1 0 0 0 0];
oriented        oriented;


internalField   nonuniform List<scalar> 
799
(
0.0470255
0.0470255
0.0470255
0.0470255
0.0470255
0.0470255
0.0470255
0.0470255
0.0470255
0.0470255
0.0470255
0.0470255
0.0470255
0.0470255
0.0470255
0.0470255
0.0470255
0.0470255
0.0470255
0.0470255
0.0470255
0.0470255
0.0470255
0.0470255
0.0470255
0.0470255
0.0470255
0.0470255
0.0470255
0.0470255
0.0470255
0.0470255
0.0470255
0.0470255
0.0470255
0.0470255
0.0470255
0.0470255
0.0470255
0.0470255
0.0470255
0.0470255
0.0470255
0.0470255
0.0470255
0.0470255
0.0470255
0.0470255
0.0470255
0.0470255
0.0470255
0.0470255
0.0470255
0.0470255
0.0470255
0.0470255
0.0470255
0.0470255
0.0470255
0.0470255
0.0470255
0.0470255
0.0470255
0.0470255
0.0470255
0.0470255
0.0470255
0.0470255
0.0470255
0.0470255
0.0470255
0.0470255
0.0470255
0.0470255
0.0470255
0.0470255
0.0470255
0.0470255
0.0470255
0.0470255
0.0470255
0.0470255
0.0470255
0.0470255
0.0470255
0.0470255
0.0470255
0.0470255
0.0470255
0.0470255
0.0470255
0.0470255
0.0470255
0.0470255
0.0470255
0.0470255
0.0470255
0.0470255
0.0470255
0.0470255
0.0470255
0.0470255
0.0470255
0.0470255
0.0470255
0.0470255
0.0470255
0.0470255
0.0470255
0.0470255
0.0470255
0.0470255
0.0470255
0.0470255
0.0470255
0.0470255
0.0470255
0.0470255
0.0470255
0.0470255
0.0470255
0.0470255
0.0470255
0.0470255
0.0470255
0.0470255
0.0470255
0.0470255
0.0470255
0.0470255
0.0470255
0.0470255
0.0470255
0.0470255
0.0470255
0.0470255
0.0470255
0.0470255
0.0470255
0.0470255
0.0470255
0.0470255
0.0470255
0.0470255
0.0470255
0.0470255
0.0470255
0.0470255
0.0470255
0.0470255
0.0470255
0.0470255
0.0470255
0.0470255
0.0470255
0.0470255
0.0470255
0.0470255
0.0470255
0.0470255
0.0470255
0.0470255
0.0470255
0.0470255
0.0470255
0.0470255
0.0470255
0.0470255
0.0470255
0.0470255
0.0470255
0.0470255
0.0470255
0.0470255
0.0470255
0.0470255
0.0470255
0.0470255
0.0470255
0.0470255
0.0470255
0.0470255
0.0470255
0.0470255
0.0470255
0.0470255
0.0470255
0.0470255
0.0470255
0.0470255
0.0470255
0.0470255
0.0470255
0.0470255
0.0470255
0.0470255
0.0470255
0.0470255
0.0470255
0.0470255
0.0470255
0.0470255
0.0470255
0.0470255
0.0470255
0.0470255
0.0470255
0.0470255
0.0470255
0.0470255
0.0470255
0.0470255
0.0470255
0.0470255
0.0470255
0.0470255
0.0470255
0.0470255
0.0470255
0.0470255
0.0470255
0.0470255
0.0470255
0.0470255
0.0470255
0.0470255
0.0470255
0.0470255
0.0470255
0.0470255
0.0470255
0.0470255
0.0470255
0.0470255
0.0470255
0.0470255
0.0470255
0.0470255
0.0470255
0.0470255
0.0470255
0.0470255
0.0470255
0.0470255
0.0470255
0.0470255
0.0470255
0.0470255
0.0470255
0.0470255
0.0470255
0.0470255
0.0470255
0.0470255
0.0470255
0.0470255
0.0470255
0.0470255
0.0470255
0.0470255
0.0470255
0.0470255
0.0470255
0.0470255
0.0470255
0.0470255
0.0470255
0.0470255
0.0470255
0.0470255
0.0470255
0.0470255
0.0470255
0.0470255
0.0470255
0.0470255
0.0470255
0.0470255
0.0470255
0.0470255
0.0470255
0.0470255
0.0470255
0.0470255
0.0470255
0.0470255
0.0470255
0.0470255
0.0470255
0.0470255
0.0470255
0.0470255
0.0470255
0.0470255
0.0470255
0.0470255
0.0470255
0.0470255
0.0470255
0.0470255
0.0470255
0.0470255
0.0470255
0.0470255
0.0470255
0.0470255
0.0470255
0.0470255
0.0470255
0.0470255
0.0470255
0.0470255
0.0470255
0.0470255
0.0470255
0.0470255
0.0470255
0.0470255
0.0470255
0.0470255
0.0470255
0.0470255
0.0470255
0.0470255
0.0470255
0.0470255
0.0470255
0.0470255
0.0470255
0.0470255
0.0470255
0.0470255
0.0470255
0.0470255
0.0470255
0.0470255
0.0470255
0.0470255
0.0470255
0.0470255
0.0470255
0.0470255
0.0470255
0.0470255
0.0470255
0.0470255
0.0470255
0.0470255
0.0470255
0.0470255
0.0470255
0.0470255
0.0470255
0.0470255
0.0470255
0.0470255
0.0470255
0.0470255
0.0470255
0.0470255
0.0470255
0.0470255
0.0470255
0.0470255
0.0470255
0.0470255
0.0470255
0.0470255
0.0470255
0.0470255
0.0470255
0.0470255
0.0470255
0.0470255
0.0470255
0.0470255
0.0470255
0.0470255
0.0470255
0.0470255
0.0470255
0.0470255
0.0470255
0.0470255
0.0470255
0.0470255
0.0470255
0.0470255
0.0470255
0.0470255
0.0470255
0.0470255
0.0470255
0.0470255
0.0470255
0.0470255
0.0470255
0.0470255
0.0470255
0.0470255
0.0470255
0.0470255
0.0470255
0.0470255
0.0470255
0.0470255
0.0470255
0.0470255
0.0470255
0.0470255
0.0470255
0.0470255
0.0470255
0.0470255
0.0470255
0.0470255
0.0470255
0.0470255
0.0470255
0.0470256
0.0470289
0.0471195
0.0489226
0.0496485
0.0495567
0.0496327
0.0497151
0.0497739
0.0498194
0.0498318
0.0498086
0.0497683
0.0497248
0.0496579
0.0495802
0.049512
0.0494675
0.0494564
0.0494665
0.0495074
0.04957
0.0496479
0.0497296
0.0497925
0.0498186
0.0498261
0.0498299
0.0498182
0.0497934
0.0497666
0.049748
0.0497369
0.0497301
0.0497286
0.0497279
0.049726
0.0497201
0.0497062
0.0496807
0.0496445
0.0496043
0.0495717
0.0495581
0.0495564
0.0495608
0.0495797
0.0496124
0.0496531
0.0496947
0.0497298
0.0497535
0.0497643
0.0497667
0.0497674
0.049766
0.0497631
0.0497591
0.0497544
0.0497488
0.0497416
0.0497319
0.0497187
0.0497014
0.0496804
0.0496569
0.0496334
0.0496133
0.0496016
0.0495992
0.0495993
0.0496052
0.0496179
0.0496368
0.0496597
0.0496838
0.0497064
0.0497253
0.0497394
0.0497483
0.0497519
0.0497527
0.0497519
0.0497497
0.0497455
0.0497395
0.0497313
0.0497207
0.0497078
0.0496927
0.0496764
0.04966
0.0496451
0.049634
0.0496287
0.0496279
0.0496287
0.0496327
0.0496406
0.0496519
0.0496656
0.0496805
0.0496953
0.0497089
0.0497206
0.0497297
0.0497357
0.0497382
0.0497385
0.0497377
0.0497352
0.0497304
0.0497232
0.0497139
0.0497028
0.0496907
0.0496783
0.0496665
0.0496563
0.0496488
0.0496453
0.0496447
0.0496452
0.0496476
0.0496524
0.0496596
0.0496688
0.0496792
0.0496902
0.0497009
0.0497107
0.049719
0.049725
0.0497281
0.0497286
0.0497284
0.0497268
0.0497233
0.0497179
0.0497107
0.0497021
0.0496926
0.0496828
0.0496735
0.0496653
0.0496591
0.0496557
0.0496548
0.0496548
0.0496562
0.0496593
0.0496644
0.0496712
0.0496793
0.0496881
0.049697
0.0497055
0.049713
0.0497188
0.0497221
0.0497232
0.0497232
0.0497221
0.0497194
0.049715
0.049709
0.0497018
0.0496938
0.0496856
0.0496778
0.0496709
0.0496654
0.0496623
0.0496613
0.0496612
0.049662
0.0496645
0.0496687
0.0496746
0.0496817
0.0496898
0.0496982
0.0497063
0.0497137
0.0497201
0.0497249
0.0497278
0.04973
0.0497309
0.0497305
0.0497285
0.0497255
0.0497214
0.0497168
0.049712
0.0497077
0.0497044
0.0497023
0.0497024
0.0497049
0.0497093
0.0497166
0.049728
0.0497451
0.0497701
0.049806
0.0498571
0.0499291
0.0500302
0.0501712
0.050366
0.0506325
0.0509933
0.0514765
0.0521141
0.0529438
0.0540082
0.0553548
0.0570338
0.0590958
0.0615884
0.0645495
0.0679995
0.071931
0.0762964
0.0809964
0.0858795
0.090746
0.0953704
0.0995306
0.103048
0.105818
0.107822
0.109121
0.109841
0.110149
0.11023
0.110228
0.110218
0.110204
0.110193
0.110183
0.110173
0.110164
0.11016
0.110163
0.11017
0.110178
0.110187
0.110193
0.110196
0.110198
0.110198
0.110195
0.110191
0.110184
0.110177
0.110171
0.110168
0.110167
0.110168
0.110171
0.110175
0.110181
0.110187
0.110193
0.110199
0.110203
0.110205
0.110206
0.110205
0.110203
0.1102
0.110196
0.110192
0.110189
0.110187
0.110187
0.110188
0.110189
0.110191
0.110194
0.110197
0.1102
0.110203
0.110204
0.110204
0.110203
0.110202
0.110201
0.110199
0.110198
0.110196
0.110195
0.110194
0.110194
0.110195
0.110196
0.110197
0.110198
0.1102
0.110201
0.110203
0.110204
0.110204
0.110204
0.110204
0.110203
0.110202
0.110201
0.1102
0.110199
0.110199
0.110199
0.110199
0.110198
0.110189
0.11014
0.109884
0.108568
0.101946
0.0735473
0.0145617
-0.014498
-0.0148512
-0.014852
-0.014852
-0.014852
-0.014852
-0.014852
-0.014852
-0.014852
-0.014852
-0.014852
-0.014852
-0.014852
-0.014852
-0.014852
-0.014852
-0.014852
-0.014852
-0.014852
-0.014852
-0.014852
-0.014852
-0.014852
-0.014852
-0.014852
-0.014852
-0.014852
-0.014852
-0.014852
-0.014852
-0.014852
-0.014852
-0.014852
-0.014852
-0.014852
-0.014852
-0.014852
-0.014852
-0.014852
-0.014852
-0.014852
-0.014852
-0.014852
-0.014852
-0.014852
-0.014852
-0.014852
-0.014852
-0.014852
-0.014852
-0.014852
-0.014852
-0.014852
-0.014852
-0.014852
-0.014852
-0.014852
)
;

boundaryField
{
    sides
    {
        type            calculated;
        value           nonuniform List<scalar> 2(-0.014852 -0.0470255);
    }
    empty1
    {
        type            empty;
        value           nonuniform 0();
    }
    empty2
    {
        type            empty;
        value           nonuniform 0();
    }
}


// ************************************************************************* //
