/*--------------------------------*- C++ -*----------------------------------*\
| =========                 |                                                 |
| \\      /  F ield         | OpenFOAM: The Open Source CFD Toolbox           |
|  \\    /   O peration     | Version:  v1812                                 |
|   \\  /    A nd           | Web:      www.OpenFOAM.com                      |
|    \\/     M anipulation  |                                                 |
\*---------------------------------------------------------------------------*/
FoamFile
{
    version     2.0;
    format      ascii;
    class       volScalarField;
    location    "0.035";
    object      rho;
}
// * * * * * * * * * * * * * * * * * * * * * * * * * * * * * * * * * * * * * //

dimensions      [1 -3 0 0 0 0 0];


internalField   nonuniform List<scalar> 
800
(
5.99892
5.99892
5.99892
5.99892
5.99892
5.99892
5.99892
5.99892
5.99892
5.99892
5.99892
5.99892
5.99892
5.99892
5.99892
5.99892
5.99892
5.99892
5.99892
5.99892
5.99892
5.99892
5.99892
5.99892
5.99892
5.99892
5.99892
5.99892
5.99892
5.99892
5.99892
5.99892
5.99892
5.99892
5.99892
5.99892
5.99892
5.99892
5.99892
5.99892
5.99892
5.99892
5.99892
5.99892
5.99892
5.99892
5.99892
5.99892
5.99892
5.99892
5.99892
5.99892
5.99892
5.99892
5.99892
5.99892
5.99892
5.99892
5.99892
5.99892
5.99892
5.99892
5.99892
5.99892
5.99892
5.99892
5.99892
5.99892
5.99892
5.99892
5.99892
5.99892
5.99892
5.99892
5.99892
5.99892
5.99892
5.99892
5.99892
5.99892
5.99892
5.99892
5.99892
5.99892
5.99892
5.99892
5.99892
5.99892
5.99892
5.99892
5.99892
5.99892
5.99892
5.99892
5.99892
5.99892
5.99892
5.99892
5.99892
5.99892
5.99892
5.99892
5.99892
5.99892
5.99892
5.99892
5.99892
5.99892
5.99892
5.99892
5.99892
5.99892
5.99892
5.99892
5.99892
5.99892
5.99892
5.99892
5.99892
5.99892
5.99892
5.99892
5.99892
5.99892
5.99892
5.99892
5.99892
5.99892
5.99892
5.99892
5.99892
5.99892
5.99892
5.99892
5.99892
5.99892
5.99892
5.99892
5.99892
5.99892
5.99892
5.99892
5.99892
5.99892
5.99892
5.99892
5.99892
5.99892
5.99892
5.99892
5.99892
5.99892
5.99892
5.99892
5.99892
5.99892
5.99892
5.99892
5.99892
5.99892
5.99892
5.99892
5.99892
5.99892
5.99892
5.99892
5.99892
5.99892
5.99892
5.99892
5.99892
5.99892
5.99892
5.99892
5.99892
5.99892
5.99892
5.99892
5.99892
5.99892
5.99892
5.99892
5.99892
5.99892
5.99892
5.99892
5.99892
5.99892
5.99892
5.99892
5.99892
5.99892
5.99892
5.99892
5.99892
5.99892
5.99892
5.99892
5.99892
5.99892
5.99892
5.99892
5.99892
5.99892
5.99892
5.99892
5.99892
5.99892
5.99892
5.99892
5.99892
5.99892
5.99892
5.99892
5.99892
5.99892
5.99892
5.99892
5.99892
5.99892
5.99892
5.99892
5.99892
5.99892
5.99892
5.99892
5.99892
5.99892
5.99892
5.99892
5.99892
5.99892
5.99892
5.99892
5.99892
5.99892
5.99892
5.99892
5.99892
5.99892
5.99892
5.99892
5.99892
5.99892
5.99892
5.99892
5.99892
5.99892
5.99892
5.99892
5.99892
5.99892
5.99892
5.99892
5.99892
5.99892
5.99892
5.99892
5.99892
5.99892
5.99892
5.99892
5.99892
5.99892
5.99892
5.99892
5.99892
5.99892
5.99892
5.99892
5.99892
5.99892
5.99892
5.99892
5.99892
5.99892
5.99892
5.99892
5.99892
5.99892
5.99892
5.99892
5.99892
5.99892
5.99892
5.99892
5.99892
5.99892
5.99892
5.99892
5.99892
5.99892
5.99892
5.99892
5.99892
5.99892
5.99892
5.99892
5.99892
5.99892
5.99892
5.99892
5.99892
5.99892
5.99892
5.99892
5.99892
5.99892
5.99892
5.99892
5.99892
5.99892
5.99892
5.99892
5.99892
5.99892
5.99892
5.99892
5.99892
5.99892
5.99892
5.99892
5.99892
5.99892
5.99892
5.99892
5.99892
5.99892
5.99892
5.99892
5.99892
5.99892
5.99892
5.99892
5.99892
5.99892
5.99892
5.99892
5.99892
5.99892
5.99892
5.99892
5.99892
5.99892
5.99892
5.99892
5.99892
5.99892
5.99892
5.99892
5.99892
5.99892
5.99892
5.99892
5.99892
5.99892
5.99892
5.99892
5.99892
5.99892
5.99892
5.99892
5.99892
5.99892
5.99892
5.99892
5.99892
5.99892
5.99892
5.99892
5.99892
5.99892
5.99892
5.99892
5.99892
5.99892
5.99892
5.99892
5.99892
5.99892
5.99892
5.99892
5.99892
5.99892
5.99892
5.99892
5.99892
5.99892
5.99892
5.99892
5.99892
5.99892
5.99892
5.99892
5.99892
5.99892
5.99892
5.99892
5.99892
5.99892
5.99892
5.99892
5.99892
5.99892
5.99892
5.99892
5.99892
5.99892
5.99892
5.99892
5.99892
5.99892
5.99892
5.99892
5.99892
5.99892
5.99892
5.99892
5.99892
5.99905
6.00238
6.08923
7.82198
13.3014
14.2105
14.2733
14.281
14.2976
14.3075
14.308
14.3027
14.2916
14.2824
14.2748
14.2672
14.2622
14.2599
14.2594
14.2613
14.2641
14.2682
14.2735
14.2804
14.2882
14.2937
14.2964
14.2987
14.2999
14.2988
14.2957
14.2925
14.2899
14.2879
14.2868
14.2866
14.2866
14.2866
14.2862
14.2846
14.2813
14.2768
14.2722
14.269
14.268
14.2679
14.269
14.2719
14.276
14.2807
14.2851
14.2884
14.2904
14.291
14.2912
14.2913
14.2913
14.2912
14.291
14.2906
14.29
14.2889
14.2874
14.2854
14.2829
14.28
14.277
14.2742
14.2722
14.2713
14.2713
14.2717
14.2728
14.2748
14.2774
14.2804
14.2833
14.2859
14.2879
14.2893
14.29
14.2902
14.2902
14.29
14.2896
14.289
14.2883
14.2873
14.2861
14.2846
14.2828
14.2809
14.2791
14.2776
14.2766
14.2763
14.2764
14.2767
14.2775
14.2787
14.2801
14.2817
14.2834
14.2849
14.2862
14.2873
14.2881
14.2885
14.2886
14.2885
14.2882
14.2878
14.287
14.286
14.2848
14.2834
14.2819
14.2805
14.2792
14.2782
14.2776
14.2774
14.2775
14.2777
14.2781
14.2788
14.2798
14.2809
14.2822
14.2835
14.2847
14.2857
14.2866
14.2871
14.2873
14.2873
14.2872
14.2869
14.2864
14.2856
14.2847
14.2837
14.2826
14.2816
14.2806
14.2798
14.2793
14.279
14.2791
14.2792
14.2795
14.28
14.2807
14.2816
14.2826
14.2837
14.2847
14.2856
14.2864
14.2869
14.2871
14.2871
14.287
14.2867
14.2862
14.2855
14.2847
14.2838
14.2828
14.2818
14.2809
14.2801
14.2796
14.2793
14.2792
14.2792
14.2794
14.2798
14.2804
14.2813
14.2823
14.2834
14.2845
14.2856
14.2867
14.2876
14.2883
14.2888
14.2893
14.2896
14.2899
14.29
14.2899
14.2898
14.2896
14.2894
14.2893
14.2893
14.2896
14.2903
14.2914
14.293
14.2955
14.2991
14.3045
14.3125
14.324
14.3407
14.3646
14.3985
14.4461
14.5119
14.6017
14.7229
14.884
15.0949
15.3674
15.7141
16.149
16.6865
17.3405
18.1232
19.0431
20.1021
21.2926
22.5939
23.9704
25.3717
26.7366
28.0006
29.1053
30.0098
30.6965
31.1718
31.4621
31.6082
31.664
31.6749
31.6741
31.6723
31.67
31.6676
31.6652
31.6626
31.6606
31.6598
31.6593
31.66
31.6613
31.6627
31.6638
31.6641
31.6644
31.6646
31.6643
31.6636
31.6626
31.6616
31.6609
31.6611
31.662
31.662
31.662
31.6626
31.6636
31.6649
31.6663
31.6669
31.6675
31.6679
31.668
31.6678
31.6673
31.6668
31.6662
31.666
31.6659
31.6655
31.6653
31.6654
31.6658
31.6663
31.6668
31.6672
31.6674
31.668
31.6682
31.6679
31.6674
31.6675
31.6675
31.6674
31.6672
31.6671
31.6667
31.6666
31.6667
31.667
31.6671
31.6673
31.6676
31.6681
31.6681
31.6681
31.6682
31.6683
31.6683
31.6683
31.6682
31.668
31.6677
31.6675
31.6674
31.6675
31.6675
31.6674
31.6669
31.6627
31.6399
31.5228
30.9273
28.0896
19.4638
8.06504
6.01278
5.99229
5.99225
5.99225
5.99225
5.99225
5.99225
5.99225
5.99225
5.99225
5.99225
5.99225
5.99225
5.99225
5.99225
5.99225
5.99225
5.99225
5.99225
5.99225
5.99225
5.99225
5.99225
5.99225
5.99225
5.99225
5.99225
5.99225
5.99225
5.99225
5.99225
5.99225
5.99225
5.99225
5.99225
5.99225
5.99225
5.99225
5.99225
5.99225
5.99225
5.99225
5.99225
5.99225
5.99225
5.99225
5.99225
5.99225
5.99225
5.99225
5.99225
5.99225
5.99225
5.99225
5.99225
5.99225
5.99225
)
;

boundaryField
{
    sides
    {
        type            calculated;
        value           nonuniform List<scalar> 2(5.99225 5.99892);
    }
    empty1
    {
        type            empty;
    }
    empty2
    {
        type            empty;
    }
}


// ************************************************************************* //
