/*--------------------------------*- C++ -*----------------------------------*\
| =========                 |                                                 |
| \\      /  F ield         | OpenFOAM: The Open Source CFD Toolbox           |
|  \\    /   O peration     | Version:  v1812                                 |
|   \\  /    A nd           | Web:      www.OpenFOAM.com                      |
|    \\/     M anipulation  |                                                 |
\*---------------------------------------------------------------------------*/
FoamFile
{
    version     2.0;
    format      ascii;
    class       volScalarField;
    location    "0.035";
    object      T;
}
// * * * * * * * * * * * * * * * * * * * * * * * * * * * * * * * * * * * * * //

dimensions      [0 0 0 1 0 0 0];


internalField   nonuniform List<scalar> 
800
(
192.063
192.063
192.063
192.063
192.063
192.063
192.063
192.063
192.063
192.063
192.063
192.063
192.063
192.063
192.063
192.063
192.063
192.063
192.063
192.063
192.063
192.063
192.063
192.063
192.063
192.063
192.063
192.063
192.063
192.063
192.063
192.063
192.063
192.063
192.063
192.063
192.063
192.063
192.063
192.063
192.063
192.063
192.063
192.063
192.063
192.063
192.063
192.063
192.063
192.063
192.063
192.063
192.063
192.063
192.063
192.063
192.063
192.063
192.063
192.063
192.063
192.063
192.063
192.063
192.063
192.063
192.063
192.063
192.063
192.063
192.063
192.063
192.063
192.063
192.063
192.063
192.063
192.063
192.063
192.063
192.063
192.063
192.063
192.063
192.063
192.063
192.063
192.063
192.063
192.063
192.063
192.063
192.063
192.063
192.063
192.063
192.063
192.063
192.063
192.063
192.063
192.063
192.063
192.063
192.063
192.063
192.063
192.063
192.063
192.063
192.063
192.063
192.063
192.063
192.063
192.063
192.063
192.063
192.063
192.063
192.063
192.063
192.063
192.063
192.063
192.063
192.063
192.063
192.063
192.063
192.063
192.063
192.063
192.063
192.063
192.063
192.063
192.063
192.063
192.063
192.063
192.063
192.063
192.063
192.063
192.063
192.063
192.063
192.063
192.063
192.063
192.063
192.063
192.063
192.063
192.063
192.063
192.063
192.063
192.063
192.063
192.063
192.063
192.063
192.063
192.063
192.063
192.063
192.063
192.063
192.063
192.063
192.063
192.063
192.063
192.063
192.063
192.063
192.063
192.063
192.063
192.063
192.063
192.063
192.063
192.063
192.063
192.063
192.063
192.063
192.063
192.063
192.063
192.063
192.063
192.063
192.063
192.063
192.063
192.063
192.063
192.063
192.063
192.063
192.063
192.063
192.063
192.063
192.063
192.063
192.063
192.063
192.063
192.063
192.063
192.063
192.063
192.063
192.063
192.063
192.063
192.063
192.063
192.063
192.063
192.063
192.063
192.063
192.063
192.063
192.063
192.063
192.063
192.063
192.063
192.063
192.063
192.063
192.063
192.063
192.063
192.063
192.063
192.063
192.063
192.063
192.063
192.063
192.063
192.063
192.063
192.063
192.063
192.063
192.063
192.063
192.063
192.063
192.063
192.063
192.063
192.063
192.063
192.063
192.063
192.063
192.063
192.063
192.063
192.063
192.063
192.063
192.063
192.063
192.063
192.063
192.063
192.063
192.063
192.063
192.063
192.063
192.063
192.063
192.063
192.063
192.063
192.063
192.063
192.063
192.063
192.063
192.063
192.063
192.063
192.063
192.063
192.063
192.063
192.063
192.063
192.063
192.063
192.063
192.063
192.063
192.063
192.063
192.063
192.063
192.063
192.063
192.063
192.063
192.063
192.063
192.063
192.063
192.063
192.063
192.063
192.063
192.063
192.063
192.063
192.063
192.063
192.063
192.063
192.063
192.063
192.063
192.063
192.063
192.063
192.063
192.063
192.063
192.063
192.063
192.063
192.063
192.063
192.063
192.063
192.063
192.063
192.063
192.063
192.063
192.063
192.063
192.063
192.063
192.063
192.063
192.063
192.063
192.063
192.063
192.063
192.063
192.063
192.063
192.063
192.063
192.063
192.063
192.063
192.063
192.063
192.063
192.063
192.063
192.063
192.063
192.063
192.063
192.063
192.063
192.063
192.063
192.063
192.063
192.063
192.063
192.063
192.063
192.063
192.063
192.063
192.063
192.063
192.063
192.063
192.063
192.063
192.063
192.063
192.063
192.063
192.063
192.063
192.063
192.063
192.063
192.063
192.063
192.063
192.063
192.063
192.063
192.063
192.063
192.063
192.063
192.063
192.063
192.063
192.065
192.107
193.211
226.043
289.118
296.355
296.098
295.643
295.467
295.458
295.521
295.711
295.954
296.092
296.093
296.013
295.812
295.576
295.422
295.388
295.414
295.527
295.716
295.894
296.003
296.033
296.017
295.957
295.878
295.823
295.804
295.806
295.825
295.862
295.891
295.898
295.894
295.874
295.836
295.792
295.749
295.715
295.691
295.682
295.687
295.702
295.723
295.75
295.784
295.823
295.859
295.888
295.904
295.908
295.905
295.896
295.881
295.863
295.845
295.831
295.821
295.815
295.811
295.806
295.8
295.791
295.779
295.768
295.759
295.757
295.759
295.763
295.77
295.779
295.792
295.806
295.82
295.833
295.844
295.853
295.859
295.864
295.867
295.868
295.867
295.863
295.854
295.843
295.828
295.813
295.797
295.782
295.769
295.759
295.753
295.752
295.753
295.755
295.76
295.767
295.778
295.791
295.806
295.821
295.834
295.846
295.854
295.859
295.861
295.861
295.86
295.856
295.851
295.843
295.833
295.822
295.81
295.798
295.787
295.779
295.773
295.771
295.771
295.772
295.775
295.781
295.787
295.796
295.804
295.813
295.821
295.829
295.835
295.84
295.841
295.841
295.841
295.838
295.834
295.828
295.82
295.812
295.803
295.794
295.787
295.781
295.777
295.776
295.777
295.778
295.781
295.785
295.791
295.797
295.805
295.812
295.819
295.826
295.831
295.835
295.837
295.837
295.836
295.835
295.832
295.828
295.823
295.818
295.811
295.805
295.8
295.796
295.794
295.793
295.794
295.796
295.799
295.802
295.805
295.808
295.81
295.811
295.811
295.81
295.807
295.8
295.79
295.779
295.766
295.752
295.737
295.72
295.703
295.685
295.667
295.649
295.632
295.615
295.597
295.578
295.555
295.525
295.482
295.418
295.323
295.178
294.96
294.638
294.167
293.492
292.54
291.223
289.434
287.051
283.941
279.966
274.992
268.912
261.654
253.21
243.643
233.105
221.831
210.136
198.384
186.958
176.226
166.499
158.009
150.89
145.175
140.81
137.669
135.573
134.322
133.698
133.457
133.402
133.393
133.393
133.393
133.397
133.407
133.419
133.432
133.444
133.449
133.453
133.456
133.457
133.457
133.456
133.453
133.451
133.448
133.445
133.443
133.44
133.438
133.438
133.438
133.437
133.436
133.436
133.436
133.436
133.436
133.435
133.433
133.432
133.431
133.429
133.428
133.427
133.425
133.425
133.424
133.423
133.423
133.423
133.423
133.424
133.425
133.426
133.426
133.427
133.428
133.427
133.427
133.426
133.426
133.426
133.425
133.425
133.424
133.423
133.423
133.424
133.424
133.424
133.425
133.425
133.425
133.425
133.424
133.424
133.424
133.424
133.424
133.424
133.424
133.424
133.424
133.424
133.424
133.423
133.422
133.414
133.376
133.182
132.181
127.24
108.514
44.0507
19.2527
19.23
19.23
19.23
19.23
19.23
19.23
19.23
19.23
19.23
19.23
19.23
19.23
19.23
19.23
19.23
19.23
19.23
19.23
19.23
19.23
19.23
19.23
19.23
19.23
19.23
19.23
19.23
19.23
19.23
19.23
19.23
19.23
19.23
19.23
19.23
19.23
19.23
19.23
19.23
19.23
19.23
19.23
19.23
19.23
19.23
19.23
19.23
19.23
19.23
19.23
19.23
19.23
19.23
19.23
19.23
19.23
)
;

boundaryField
{
    sides
    {
        type            zeroGradient;
    }
    empty1
    {
        type            empty;
    }
    empty2
    {
        type            empty;
    }
}


// ************************************************************************* //
