/*--------------------------------*- C++ -*----------------------------------*\
| =========                 |                                                 |
| \\      /  F ield         | OpenFOAM: The Open Source CFD Toolbox           |
|  \\    /   O peration     | Version:  v1812                                 |
|   \\  /    A nd           | Web:      www.OpenFOAM.com                      |
|    \\/     M anipulation  |                                                 |
\*---------------------------------------------------------------------------*/
FoamFile
{
    version     2.0;
    format      ascii;
    class       volVectorField;
    location    "0.035";
    object      U;
}
// * * * * * * * * * * * * * * * * * * * * * * * * * * * * * * * * * * * * * //

dimensions      [0 1 -1 0 0 0 0];


internalField   nonuniform List<vector> 
800
(
(19.5975 0 0)
(19.5975 0 0)
(19.5975 0 0)
(19.5975 0 0)
(19.5975 0 0)
(19.5975 0 0)
(19.5975 0 0)
(19.5975 0 0)
(19.5975 0 0)
(19.5975 0 0)
(19.5975 0 0)
(19.5975 0 0)
(19.5975 0 0)
(19.5975 0 0)
(19.5975 0 0)
(19.5975 0 0)
(19.5975 0 0)
(19.5975 0 0)
(19.5975 0 0)
(19.5975 0 0)
(19.5975 0 0)
(19.5975 0 0)
(19.5975 0 0)
(19.5975 0 0)
(19.5975 0 0)
(19.5975 0 0)
(19.5975 0 0)
(19.5975 0 0)
(19.5975 0 0)
(19.5975 0 0)
(19.5975 0 0)
(19.5975 0 0)
(19.5975 0 0)
(19.5975 0 0)
(19.5975 0 0)
(19.5975 0 0)
(19.5975 0 0)
(19.5975 0 0)
(19.5975 0 0)
(19.5975 0 0)
(19.5975 0 0)
(19.5975 0 0)
(19.5975 0 0)
(19.5975 0 0)
(19.5975 0 0)
(19.5975 0 0)
(19.5975 0 0)
(19.5975 0 0)
(19.5975 0 0)
(19.5975 0 0)
(19.5975 0 0)
(19.5975 0 0)
(19.5975 0 0)
(19.5975 0 0)
(19.5975 0 0)
(19.5975 0 0)
(19.5975 0 0)
(19.5975 0 0)
(19.5975 0 0)
(19.5975 0 0)
(19.5975 0 0)
(19.5975 0 0)
(19.5975 0 0)
(19.5975 0 0)
(19.5975 0 0)
(19.5975 0 0)
(19.5975 0 0)
(19.5975 0 0)
(19.5975 0 0)
(19.5975 0 0)
(19.5975 0 0)
(19.5975 0 0)
(19.5975 0 0)
(19.5975 0 0)
(19.5975 0 0)
(19.5975 0 0)
(19.5975 0 0)
(19.5975 0 0)
(19.5975 0 0)
(19.5975 0 0)
(19.5975 0 0)
(19.5975 0 0)
(19.5975 0 0)
(19.5975 0 0)
(19.5975 0 0)
(19.5975 0 0)
(19.5975 0 0)
(19.5975 0 0)
(19.5975 0 0)
(19.5975 0 0)
(19.5975 0 0)
(19.5975 0 0)
(19.5975 0 0)
(19.5975 0 0)
(19.5975 0 0)
(19.5975 0 0)
(19.5975 0 0)
(19.5975 0 0)
(19.5975 0 0)
(19.5975 0 0)
(19.5975 0 0)
(19.5975 0 0)
(19.5975 0 0)
(19.5975 0 0)
(19.5975 0 0)
(19.5975 0 0)
(19.5975 0 0)
(19.5975 0 0)
(19.5975 0 0)
(19.5975 0 0)
(19.5975 0 0)
(19.5975 0 0)
(19.5975 0 0)
(19.5975 0 0)
(19.5975 0 0)
(19.5975 0 0)
(19.5975 0 0)
(19.5975 0 0)
(19.5975 0 0)
(19.5975 0 0)
(19.5975 0 0)
(19.5975 0 0)
(19.5975 0 0)
(19.5975 0 0)
(19.5975 0 0)
(19.5975 0 0)
(19.5975 0 0)
(19.5975 0 0)
(19.5975 0 0)
(19.5975 0 0)
(19.5975 0 0)
(19.5975 0 0)
(19.5975 0 0)
(19.5975 0 0)
(19.5975 0 0)
(19.5975 0 0)
(19.5975 0 0)
(19.5975 0 0)
(19.5975 0 0)
(19.5975 0 0)
(19.5975 0 0)
(19.5975 0 0)
(19.5975 0 0)
(19.5975 0 0)
(19.5975 0 0)
(19.5975 0 0)
(19.5975 0 0)
(19.5975 0 0)
(19.5975 0 0)
(19.5975 0 0)
(19.5975 0 0)
(19.5975 0 0)
(19.5975 0 0)
(19.5975 0 0)
(19.5975 0 0)
(19.5975 0 0)
(19.5975 0 0)
(19.5975 0 0)
(19.5975 0 0)
(19.5975 0 0)
(19.5975 0 0)
(19.5975 0 0)
(19.5975 0 0)
(19.5975 0 0)
(19.5975 0 0)
(19.5975 0 0)
(19.5975 0 0)
(19.5975 0 0)
(19.5975 0 0)
(19.5975 0 0)
(19.5975 0 0)
(19.5975 0 0)
(19.5975 0 0)
(19.5975 0 0)
(19.5975 0 0)
(19.5975 0 0)
(19.5975 0 0)
(19.5975 0 0)
(19.5975 0 0)
(19.5975 0 0)
(19.5975 0 0)
(19.5975 0 0)
(19.5975 0 0)
(19.5975 0 0)
(19.5975 0 0)
(19.5975 0 0)
(19.5975 0 0)
(19.5975 0 0)
(19.5975 0 0)
(19.5975 0 0)
(19.5975 0 0)
(19.5975 0 0)
(19.5975 0 0)
(19.5975 0 0)
(19.5975 0 0)
(19.5975 0 0)
(19.5975 0 0)
(19.5975 0 0)
(19.5975 0 0)
(19.5975 0 0)
(19.5975 0 0)
(19.5975 0 0)
(19.5975 0 0)
(19.5975 0 0)
(19.5975 0 0)
(19.5975 0 0)
(19.5975 0 0)
(19.5975 0 0)
(19.5975 0 0)
(19.5975 0 0)
(19.5975 0 0)
(19.5975 0 0)
(19.5975 0 0)
(19.5975 0 0)
(19.5975 0 0)
(19.5975 0 0)
(19.5975 0 0)
(19.5975 0 0)
(19.5975 0 0)
(19.5975 0 0)
(19.5975 0 0)
(19.5975 0 0)
(19.5975 0 0)
(19.5975 0 0)
(19.5975 0 0)
(19.5975 0 0)
(19.5975 0 0)
(19.5975 0 0)
(19.5975 0 0)
(19.5975 0 0)
(19.5975 0 0)
(19.5975 0 0)
(19.5975 0 0)
(19.5975 0 0)
(19.5975 0 0)
(19.5975 0 0)
(19.5975 0 0)
(19.5975 0 0)
(19.5975 0 0)
(19.5975 0 0)
(19.5975 0 0)
(19.5975 0 0)
(19.5975 0 0)
(19.5975 0 0)
(19.5975 0 0)
(19.5975 0 0)
(19.5975 0 0)
(19.5975 0 0)
(19.5975 0 0)
(19.5975 0 0)
(19.5975 0 0)
(19.5975 0 0)
(19.5975 0 0)
(19.5975 0 0)
(19.5975 0 0)
(19.5975 0 0)
(19.5975 0 0)
(19.5975 0 0)
(19.5975 0 0)
(19.5975 0 0)
(19.5975 0 0)
(19.5975 0 0)
(19.5975 0 0)
(19.5975 0 0)
(19.5975 0 0)
(19.5975 0 0)
(19.5975 0 0)
(19.5975 0 0)
(19.5975 0 0)
(19.5975 0 0)
(19.5975 0 0)
(19.5975 0 0)
(19.5975 0 0)
(19.5975 0 0)
(19.5975 0 0)
(19.5975 0 0)
(19.5975 0 0)
(19.5975 0 0)
(19.5975 0 0)
(19.5975 0 0)
(19.5975 0 0)
(19.5975 0 0)
(19.5975 0 0)
(19.5975 0 0)
(19.5975 0 0)
(19.5975 0 0)
(19.5975 0 0)
(19.5975 0 0)
(19.5975 0 0)
(19.5975 0 0)
(19.5975 0 0)
(19.5975 0 0)
(19.5975 0 0)
(19.5975 0 0)
(19.5975 0 0)
(19.5975 0 0)
(19.5975 0 0)
(19.5975 0 0)
(19.5975 0 0)
(19.5975 0 0)
(19.5975 0 0)
(19.5975 0 0)
(19.5975 0 0)
(19.5975 0 0)
(19.5975 0 0)
(19.5975 0 0)
(19.5975 0 0)
(19.5975 0 0)
(19.5975 0 0)
(19.5975 0 0)
(19.5975 0 0)
(19.5975 0 0)
(19.5975 0 0)
(19.5975 0 0)
(19.5975 0 0)
(19.5975 0 0)
(19.5975 0 0)
(19.5975 0 0)
(19.5975 0 0)
(19.5975 0 0)
(19.5975 0 0)
(19.5975 0 0)
(19.5975 0 0)
(19.5975 0 0)
(19.5975 0 0)
(19.5975 0 0)
(19.5975 0 0)
(19.5975 0 0)
(19.5975 0 0)
(19.5975 0 0)
(19.5975 0 0)
(19.5975 0 0)
(19.5975 0 0)
(19.5975 0 0)
(19.5975 0 0)
(19.5975 0 0)
(19.5975 0 0)
(19.5975 0 0)
(19.5975 0 0)
(19.5975 0 0)
(19.5975 0 0)
(19.5975 0 0)
(19.5975 0 0)
(19.5975 0 0)
(19.5975 0 0)
(19.5975 0 0)
(19.5975 0 0)
(19.5975 0 0)
(19.5975 0 0)
(19.5975 0 0)
(19.5975 0 0)
(19.5975 0 0)
(19.5975 0 0)
(19.5975 0 0)
(19.5975 0 0)
(19.5975 0 0)
(19.5975 0 0)
(19.5975 0 0)
(19.5975 0 0)
(19.5975 0 0)
(19.5975 0 0)
(19.5975 0 0)
(19.5975 0 0)
(19.5975 0 0)
(19.5975 0 0)
(19.5975 0 0)
(19.5975 0 0)
(19.5975 0 0)
(19.5975 0 0)
(19.5975 0 0)
(19.5975 0 0)
(19.5975 0 0)
(19.5975 0 0)
(19.5975 0 0)
(19.5975 0 0)
(19.5975 0 0)
(19.5975 0 0)
(19.5975 0 0)
(19.5975 0 0)
(19.5975 0 0)
(19.5975 0 0)
(19.5975 0 0)
(19.5975 0 0)
(19.5975 0 0)
(19.5975 0 0)
(19.5975 0 0)
(19.5975 0 0)
(19.5975 0 0)
(19.5975 0 0)
(19.5975 0 0)
(19.5975 0 0)
(19.5975 0 0)
(19.5975 0 0)
(19.5975 0 0)
(19.5975 0 0)
(19.5975 0 0)
(19.5975 0 0)
(19.5975 0 0)
(19.5975 0 0)
(19.5975 0 0)
(19.5975 0 0)
(19.5975 0 0)
(19.5975 0 0)
(19.5975 0 0)
(19.5975 0 0)
(19.5975 0 0)
(19.5975 0 0)
(19.5975 0 0)
(19.5975 0 0)
(19.5975 0 0)
(19.5975 0 0)
(19.5975 0 0)
(19.5975 0 0)
(19.5975 0 0)
(19.5975 0 0)
(19.5975 0 0)
(19.5975 0 0)
(19.5975 0 0)
(19.5975 0 0)
(19.5974 0 0)
(19.5941 0 0)
(19.5092 0 0)
(16.7583 0 0)
(9.91751 0 0)
(8.69275 0 0)
(8.68828 0 0)
(8.70186 0 0)
(8.69932 0 0)
(8.70163 0 0)
(8.70601 0 0)
(8.70783 0 0)
(8.70804 0 0)
(8.70706 0 0)
(8.70261 0 0)
(8.69432 0 0)
(8.68472 0 0)
(8.6759 0 0)
(8.67083 0 0)
(8.67084 0 0)
(8.67375 0 0)
(8.68014 0 0)
(8.68905 0 0)
(8.69895 0 0)
(8.70727 0 0)
(8.7117 0 0)
(8.7125 0 0)
(8.71212 0 0)
(8.71061 0 0)
(8.70789 0 0)
(8.70521 0 0)
(8.70323 0 0)
(8.70217 0 0)
(8.70192 0 0)
(8.70195 0 0)
(8.70195 0 0)
(8.70167 0 0)
(8.70096 0 0)
(8.69948 0 0)
(8.69695 0 0)
(8.6935 0 0)
(8.68953 0 0)
(8.68583 0 0)
(8.68356 0 0)
(8.68321 0 0)
(8.68366 0 0)
(8.68516 0 0)
(8.68792 0 0)
(8.69177 0 0)
(8.6961 0 0)
(8.70015 0 0)
(8.70329 0 0)
(8.70517 0 0)
(8.70583 0 0)
(8.70588 0 0)
(8.70577 0 0)
(8.7054 0 0)
(8.70485 0 0)
(8.70421 0 0)
(8.70355 0 0)
(8.70284 0 0)
(8.70198 0 0)
(8.70087 0 0)
(8.69943 0 0)
(8.6976 0 0)
(8.69544 0 0)
(8.69314 0 0)
(8.69097 0 0)
(8.68933 0 0)
(8.68866 0 0)
(8.68868 0 0)
(8.68902 0 0)
(8.68993 0 0)
(8.69148 0 0)
(8.69353 0 0)
(8.69586 0 0)
(8.69817 0 0)
(8.70022 0 0)
(8.70187 0 0)
(8.70305 0 0)
(8.70372 0 0)
(8.70394 0 0)
(8.70392 0 0)
(8.70378 0 0)
(8.70345 0 0)
(8.7029 0 0)
(8.7021 0 0)
(8.70105 0 0)
(8.69975 0 0)
(8.69823 0 0)
(8.69655 0 0)
(8.69482 0 0)
(8.69318 0 0)
(8.69181 0 0)
(8.69091 0 0)
(8.69062 0 0)
(8.69064 0 0)
(8.69087 0 0)
(8.69146 0 0)
(8.69243 0 0)
(8.69373 0 0)
(8.69524 0 0)
(8.69683 0 0)
(8.69838 0 0)
(8.69977 0 0)
(8.70094 0 0)
(8.7018 0 0)
(8.70232 0 0)
(8.70247 0 0)
(8.70247 0 0)
(8.70232 0 0)
(8.70197 0 0)
(8.70138 0 0)
(8.70055 0 0)
(8.69952 0 0)
(8.69834 0 0)
(8.69707 0 0)
(8.69582 0 0)
(8.69466 0 0)
(8.69371 0 0)
(8.69309 0 0)
(8.69288 0 0)
(8.69289 0 0)
(8.69303 0 0)
(8.6934 0 0)
(8.69401 0 0)
(8.69486 0 0)
(8.69587 0 0)
(8.69698 0 0)
(8.6981 0 0)
(8.69917 0 0)
(8.70011 0 0)
(8.70086 0 0)
(8.70135 0 0)
(8.70153 0 0)
(8.70152 0 0)
(8.70142 0 0)
(8.70116 0 0)
(8.7007 0 0)
(8.70004 0 0)
(8.6992 0 0)
(8.69824 0 0)
(8.69721 0 0)
(8.69619 0 0)
(8.69524 0 0)
(8.69446 0 0)
(8.69392 0 0)
(8.69368 0 0)
(8.69364 0 0)
(8.6937 0 0)
(8.69392 0 0)
(8.69433 0 0)
(8.69493 0 0)
(8.69568 0 0)
(8.69654 0 0)
(8.69745 0 0)
(8.69835 0 0)
(8.69918 0 0)
(8.69988 0 0)
(8.70039 0 0)
(8.70064 0 0)
(8.70071 0 0)
(8.70069 0 0)
(8.70053 0 0)
(8.7002 0 0)
(8.6997 0 0)
(8.69904 0 0)
(8.69828 0 0)
(8.69747 0 0)
(8.69666 0 0)
(8.69592 0 0)
(8.69531 0 0)
(8.69489 0 0)
(8.6947 0 0)
(8.6947 0 0)
(8.69477 0 0)
(8.69495 0 0)
(8.69528 0 0)
(8.69577 0 0)
(8.69639 0 0)
(8.69711 0 0)
(8.69788 0 0)
(8.69862 0 0)
(8.69931 0 0)
(8.69991 0 0)
(8.70035 0 0)
(8.70059 0 0)
(8.70067 0 0)
(8.70065 0 0)
(8.70049 0 0)
(8.70014 0 0)
(8.69963 0 0)
(8.69903 0 0)
(8.69836 0 0)
(8.69766 0 0)
(8.69697 0 0)
(8.69636 0 0)
(8.69587 0 0)
(8.69551 0 0)
(8.69533 0 0)
(8.6953 0 0)
(8.69533 0 0)
(8.69547 0 0)
(8.69574 0 0)
(8.69614 0 0)
(8.69665 0 0)
(8.69724 0 0)
(8.69786 0 0)
(8.69846 0 0)
(8.69901 0 0)
(8.69947 0 0)
(8.6998 0 0)
(8.69997 0 0)
(8.70006 0 0)
(8.70009 0 0)
(8.70007 0 0)
(8.70001 0 0)
(8.69996 0 0)
(8.69998 0 0)
(8.70016 0 0)
(8.70056 0 0)
(8.70119 0 0)
(8.70201 0 0)
(8.70296 0 0)
(8.70392 0 0)
(8.70467 0 0)
(8.70493 0 0)
(8.70487 0 0)
(8.70444 0 0)
(8.70371 0 0)
(8.70299 0 0)
(8.70238 0 0)
(8.70189 0 0)
(8.7015 0 0)
(8.70118 0 0)
(8.70097 0 0)
(8.70075 0 0)
(8.7003 0 0)
(8.69972 0 0)
(8.69926 0 0)
(8.69897 0 0)
(8.69874 0 0)
(8.69866 0 0)
(8.69863 0 0)
(8.69868 0 0)
(8.69884 0 0)
(8.69943 0 0)
(8.69981 0 0)
(8.70012 0 0)
(8.70031 0 0)
(8.7004 0 0)
(8.70047 0 0)
(8.70044 0 0)
(8.7003 0 0)
(8.70008 0 0)
(8.69984 0 0)
(8.69958 0 0)
(8.69934 0 0)
(8.69913 0 0)
(8.69895 0 0)
(8.69876 0 0)
(8.6989 0 0)
(8.69922 0 0)
(8.69939 0 0)
(8.69955 0 0)
(8.6997 0 0)
(8.69985 0 0)
(8.70006 0 0)
(8.70014 0 0)
(8.70012 0 0)
(8.70006 0 0)
(8.70001 0 0)
(8.69992 0 0)
(8.69978 0 0)
(8.6996 0 0)
(8.6994 0 0)
(8.69924 0 0)
(8.6993 0 0)
(8.69937 0 0)
(8.69942 0 0)
(8.69947 0 0)
(8.69953 0 0)
(8.69963 0 0)
(8.69977 0 0)
(8.69992 0 0)
(8.69991 0 0)
(8.69987 0 0)
(8.69996 0 0)
(8.69997 0 0)
(8.69989 0 0)
(8.69977 0 0)
(8.69968 0 0)
(8.69959 0 0)
(8.69949 0 0)
(8.69953 0 0)
(8.69954 0 0)
(8.69956 0 0)
(8.69953 0 0)
(8.69958 0 0)
(8.69969 0 0)
(8.69967 0 0)
(8.6997 0 0)
(8.69978 0 0)
(8.69985 0 0)
(8.69988 0 0)
(8.69988 0 0)
(8.69985 0 0)
(8.69981 0 0)
(8.69976 0 0)
(8.69974 0 0)
(8.69974 0 0)
(8.69973 0 0)
(8.69972 0 0)
(8.69971 0 0)
(8.69972 0 0)
(8.69968 0 0)
(8.6994 0 0)
(8.69813 0 0)
(8.69163 0 0)
(8.65788 0 0)
(8.48421 0 0)
(7.61461 0 0)
(3.94203 0 0)
(-3.95042 0 0)
(-6.19511 0 0)
(-6.19633 0 0)
(-6.19633 0 0)
(-6.19633 0 0)
(-6.19633 0 0)
(-6.19633 0 0)
(-6.19633 0 0)
(-6.19633 0 0)
(-6.19633 0 0)
(-6.19633 0 0)
(-6.19633 0 0)
(-6.19633 0 0)
(-6.19633 0 0)
(-6.19633 0 0)
(-6.19633 0 0)
(-6.19633 0 0)
(-6.19633 0 0)
(-6.19633 0 0)
(-6.19633 0 0)
(-6.19633 0 0)
(-6.19633 0 0)
(-6.19633 0 0)
(-6.19633 0 0)
(-6.19633 0 0)
(-6.19633 0 0)
(-6.19633 0 0)
(-6.19633 0 0)
(-6.19633 0 0)
(-6.19633 0 0)
(-6.19633 0 0)
(-6.19633 0 0)
(-6.19633 0 0)
(-6.19633 0 0)
(-6.19633 0 0)
(-6.19633 0 0)
(-6.19633 0 0)
(-6.19633 0 0)
(-6.19633 0 0)
(-6.19633 0 0)
(-6.19633 0 0)
(-6.19633 0 0)
(-6.19633 0 0)
(-6.19633 0 0)
(-6.19633 0 0)
(-6.19633 0 0)
(-6.19633 0 0)
(-6.19633 0 0)
(-6.19633 0 0)
(-6.19633 0 0)
(-6.19633 0 0)
(-6.19633 0 0)
(-6.19633 0 0)
(-6.19633 0 0)
(-6.19633 0 0)
(-6.19633 0 0)
(-6.19633 0 0)
(-6.19633 0 0)
)
;

boundaryField
{
    sides
    {
        type            zeroGradient;
    }
    empty1
    {
        type            empty;
    }
    empty2
    {
        type            empty;
    }
}


// ************************************************************************* //
